<VTKFile type="RectilinearGrid" version="0.1" format="ascii">
 <RectilinearGrid WholeExtent="1 61 1 61 1 1">
  <Piece Extent="1 61 1 61 1 1">
   <Coordinates>
    <DataArray type="Float32" Name="X_COORDINATES" NumberOfComponents="1" format="ascii">
  -15.00000      -14.50000      -14.00000      -13.50000      -13.00000    
  -12.50000      -12.00000      -11.50000      -11.00000      -10.50000    
  -10.00000      -9.500000      -9.000000      -8.500000      -8.000000    
  -7.500000      -7.000000      -6.500000      -6.000000      -5.500000    
  -5.000000      -4.500000      -4.000000      -3.500000      -3.000000    
  -2.500000      -2.000000      -1.500000      -1.000000     -0.5000000    
  0.0000000E+00  0.5000000       1.000000       1.500000       2.000000    
   2.500000       3.000000       3.500000       4.000000       4.500000    
   5.000000       5.500000       6.000000       6.500000       7.000000    
   7.500000       8.000000       8.500000       9.000000       9.500000    
   10.00000       10.50000       11.00000       11.50000       12.00000    
   12.50000       13.00000       13.50000       14.00000       14.50000    
   15.00000    
    </DataArray>
    <DataArray type="Float32" Name="Y_COORDINATES" NumberOfComponents="1" format="ascii">
  -15.00000      -14.50000      -14.00000      -13.50000      -13.00000    
  -12.50000      -12.00000      -11.50000      -11.00000      -10.50000    
  -10.00000      -9.500000      -9.000000      -8.500000      -8.000000    
  -7.500000      -7.000000      -6.500000      -6.000000      -5.500000    
  -5.000000      -4.500000      -4.000000      -3.500000      -3.000000    
  -2.500000      -2.000000      -1.500000      -1.000000     -0.5000000    
  0.0000000E+00  0.5000000       1.000000       1.500000       2.000000    
   2.500000       3.000000       3.500000       4.000000       4.500000    
   5.000000       5.500000       6.000000       6.500000       7.000000    
   7.500000       8.000000       8.500000       9.000000       9.500000    
   10.00000       10.50000       11.00000       11.50000       12.00000    
   12.50000       13.00000       13.50000       14.00000       14.50000    
   15.00000    
    </DataArray>
    <DataArray type="Float32" Name="Z_COORDINATES" NumberOfComponents="1" format="ascii">
  0.0000000E+00
    </DataArray>
   </Coordinates>
   <PointData>
        <DataArray type="Float32" Name="psi[nm^-1]_real" NumberOfComponents="1" format="ascii">
  0.0000000E+00  0.0000000E+00  0.0000000E+00  0.0000000E+00  0.0000000E+00
  0.0000000E+00  0.0000000E+00  0.0000000E+00  0.0000000E+00  0.0000000E+00
  0.0000000E+00  0.0000000E+00  0.0000000E+00  0.0000000E+00  0.0000000E+00
  0.0000000E+00  0.0000000E+00  0.0000000E+00  0.0000000E+00  0.0000000E+00
  0.0000000E+00  0.0000000E+00  0.0000000E+00  0.0000000E+00  0.0000000E+00
  7.5821799E-06  1.0499958E-05  1.1883331E-05  1.2639253E-05  1.3038702E-05
  1.3165456E-05  1.3038702E-05  1.2639253E-05  1.1883331E-05  1.0499958E-05
  7.5821799E-06  0.0000000E+00  0.0000000E+00  0.0000000E+00  0.0000000E+00
  0.0000000E+00  0.0000000E+00  0.0000000E+00  0.0000000E+00  0.0000000E+00
  0.0000000E+00  0.0000000E+00  0.0000000E+00  0.0000000E+00  0.0000000E+00
  0.0000000E+00  0.0000000E+00  0.0000000E+00  0.0000000E+00  0.0000000E+00
  0.0000000E+00  0.0000000E+00  0.0000000E+00  0.0000000E+00  0.0000000E+00
  0.0000000E+00  0.0000000E+00  0.0000000E+00  0.0000000E+00  0.0000000E+00
  0.0000000E+00  0.0000000E+00  0.0000000E+00  0.0000000E+00  0.0000000E+00
  0.0000000E+00  0.0000000E+00  0.0000000E+00  0.0000000E+00  0.0000000E+00
  0.0000000E+00  0.0000000E+00  0.0000000E+00  0.0000000E+00  0.0000000E+00
  0.0000000E+00  0.0000000E+00  7.7971654E-06  1.1410635E-05  1.3886222E-05
  1.6415404E-05  2.0422083E-05  2.3289876E-05  2.5280329E-05  2.6586287E-05
  2.7334139E-05  2.7578637E-05  2.7334139E-05  2.6586287E-05  2.5280329E-05
  2.3289876E-05  2.0422083E-05  1.6415404E-05  1.3886222E-05  1.1410635E-05
  7.7971654E-06  0.0000000E+00  0.0000000E+00  0.0000000E+00  0.0000000E+00
  0.0000000E+00  0.0000000E+00  0.0000000E+00  0.0000000E+00  0.0000000E+00
  0.0000000E+00  0.0000000E+00  0.0000000E+00  0.0000000E+00  0.0000000E+00
  0.0000000E+00  0.0000000E+00  0.0000000E+00  0.0000000E+00  0.0000000E+00
  0.0000000E+00  0.0000000E+00  0.0000000E+00  0.0000000E+00  0.0000000E+00
  0.0000000E+00  0.0000000E+00  0.0000000E+00  0.0000000E+00  0.0000000E+00
  0.0000000E+00  0.0000000E+00  0.0000000E+00  0.0000000E+00  0.0000000E+00
  0.0000000E+00  0.0000000E+00  0.0000000E+00  0.0000000E+00  0.0000000E+00
  7.4780432E-06  1.1553480E-05  1.5178155E-05  2.0388174E-05  2.4795096E-05
  2.8776500E-05  3.2643267E-05  3.6627254E-05  4.0035065E-05  4.2702803E-05
  4.4604993E-05  4.5745339E-05  4.6125526E-05  4.5745339E-05  4.4604993E-05
  4.2702803E-05  4.0035065E-05  3.6627254E-05  3.2643267E-05  2.8776500E-05
  2.4795096E-05  2.0388174E-05  1.5178155E-05  1.1553480E-05  7.4780432E-06
  0.0000000E+00  0.0000000E+00  0.0000000E+00  0.0000000E+00  0.0000000E+00
  0.0000000E+00  0.0000000E+00  0.0000000E+00  0.0000000E+00  0.0000000E+00
  0.0000000E+00  0.0000000E+00  0.0000000E+00  0.0000000E+00  0.0000000E+00
  0.0000000E+00  0.0000000E+00  0.0000000E+00  0.0000000E+00  0.0000000E+00
  0.0000000E+00  0.0000000E+00  0.0000000E+00  0.0000000E+00  0.0000000E+00
  0.0000000E+00  0.0000000E+00  0.0000000E+00  0.0000000E+00  0.0000000E+00
  0.0000000E+00  0.0000000E+00  0.0000000E+00  0.0000000E+00  7.8713520E-06
  1.2899167E-05  1.8943865E-05  2.4423805E-05  2.9969844E-05  3.5977402E-05
  4.1881925E-05  4.7584439E-05  5.3067950E-05  5.8249159E-05  6.2811247E-05
  6.6534303E-05  6.9280424E-05  7.0962269E-05  7.1528622E-05  7.0962269E-05
  6.9280424E-05  6.6534303E-05  6.2811247E-05  5.8249159E-05  5.3067950E-05
  4.7584439E-05  4.1881925E-05  3.5977402E-05  2.9969844E-05  2.4423805E-05
  1.8943865E-05  1.2899167E-05  7.8713520E-06  0.0000000E+00  0.0000000E+00
  0.0000000E+00  0.0000000E+00  0.0000000E+00  0.0000000E+00  0.0000000E+00
  0.0000000E+00  0.0000000E+00  0.0000000E+00  0.0000000E+00  0.0000000E+00
  0.0000000E+00  0.0000000E+00  0.0000000E+00  0.0000000E+00  0.0000000E+00
  0.0000000E+00  0.0000000E+00  0.0000000E+00  0.0000000E+00  0.0000000E+00
  0.0000000E+00  0.0000000E+00  0.0000000E+00  0.0000000E+00  0.0000000E+00
  0.0000000E+00  0.0000000E+00  0.0000000E+00  7.2807420E-06  1.2506136E-05
  1.9202191E-05  2.5791049E-05  3.2986849E-05  4.0455812E-05  4.8260747E-05
  5.6424335E-05  6.4705768E-05  7.2900009E-05  8.0808255E-05  8.8188230E-05
  9.4727431E-05  1.0013572E-04  1.0417605E-04  1.0667286E-04  1.0751744E-04
  1.0667286E-04  1.0417605E-04  1.0013572E-04  9.4727431E-05  8.8188230E-05
  8.0808255E-05  7.2900009E-05  6.4705768E-05  5.6424335E-05  4.8260747E-05
  4.0455812E-05  3.2986849E-05  2.5791049E-05  1.9202191E-05  1.2506136E-05
  7.2807420E-06  0.0000000E+00  0.0000000E+00  0.0000000E+00  0.0000000E+00
  0.0000000E+00  0.0000000E+00  0.0000000E+00  0.0000000E+00  0.0000000E+00
  0.0000000E+00  0.0000000E+00  0.0000000E+00  0.0000000E+00  0.0000000E+00
  0.0000000E+00  0.0000000E+00  0.0000000E+00  0.0000000E+00  0.0000000E+00
  0.0000000E+00  0.0000000E+00  0.0000000E+00  0.0000000E+00  0.0000000E+00
  0.0000000E+00  0.0000000E+00  0.0000000E+00  9.2860519E-06  1.7186567E-05
  2.4534049E-05  3.2672277E-05  4.1484465E-05  5.1116112E-05  6.1498387E-05
  7.2571005E-05  8.4210311E-05  9.6168144E-05  1.0813584E-04  1.1975622E-04
  1.3062279E-04  1.4029343E-04  1.4833878E-04  1.5438281E-04  1.5813328E-04
  1.5940463E-04  1.5813328E-04  1.5438281E-04  1.4833878E-04  1.4029343E-04
  1.3062279E-04  1.1975622E-04  1.0813584E-04  9.6168144E-05  8.4210311E-05
  7.2571005E-05  6.1498387E-05  5.1116112E-05  4.1484465E-05  3.2672277E-05
  2.4534049E-05  1.7186567E-05  9.2860519E-06  0.0000000E+00  0.0000000E+00
  0.0000000E+00  0.0000000E+00  0.0000000E+00  0.0000000E+00  0.0000000E+00
  0.0000000E+00  0.0000000E+00  0.0000000E+00  0.0000000E+00  0.0000000E+00
  0.0000000E+00  0.0000000E+00  0.0000000E+00  0.0000000E+00  0.0000000E+00
  0.0000000E+00  0.0000000E+00  0.0000000E+00  0.0000000E+00  0.0000000E+00
  0.0000000E+00  0.0000000E+00  7.0175179E-06  1.2661324E-05  2.0684294E-05
  2.9417286E-05  3.9013565E-05  4.9786289E-05  6.1840889E-05  7.5250122E-05
  8.9978064E-05  1.0590536E-04  1.2280677E-04  1.4032995E-04  1.5800992E-04
  1.7528466E-04  1.9151607E-04  2.0602549E-04  2.1814718E-04  2.2728597E-04
  2.3297124E-04  2.3490103E-04  2.3297124E-04  2.2728597E-04  2.1814718E-04
  2.0602549E-04  1.9151607E-04  1.7528466E-04  1.5800992E-04  1.4032995E-04
  1.2280677E-04  1.0590536E-04  8.9978064E-05  7.5250122E-05  6.1840889E-05
  4.9786289E-05  3.9013565E-05  2.9417286E-05  2.0684294E-05  1.2661324E-05
  7.0175179E-06  0.0000000E+00  0.0000000E+00  0.0000000E+00  0.0000000E+00
  0.0000000E+00  0.0000000E+00  0.0000000E+00  0.0000000E+00  0.0000000E+00
  0.0000000E+00  0.0000000E+00  0.0000000E+00  0.0000000E+00  0.0000000E+00
  0.0000000E+00  0.0000000E+00  0.0000000E+00  0.0000000E+00  0.0000000E+00
  0.0000000E+00  0.0000000E+00  8.1179078E-06  1.5957885E-05  2.3973203E-05
  3.3561333E-05  4.4672426E-05  5.7472556E-05  7.2198040E-05  8.9015404E-05
  1.0801027E-04  1.2914963E-04  1.5226177E-04  1.7701126E-04  2.0288062E-04
  2.2917140E-04  2.5502153E-04  2.7944156E-04  3.0137307E-04  3.1976818E-04
  3.3368013E-04  3.4235357E-04  3.4530088E-04  3.4235357E-04  3.3368013E-04
  3.1976818E-04  3.0137307E-04  2.7944156E-04  2.5502153E-04  2.2917140E-04
  2.0288062E-04  1.7701126E-04  1.5226177E-04  1.2914963E-04  1.0801027E-04
  8.9015404E-05  7.2198040E-05  5.7472556E-05  4.4672426E-05  3.3561333E-05
  2.3973203E-05  1.5957885E-05  8.1179078E-06  0.0000000E+00  0.0000000E+00
  0.0000000E+00  0.0000000E+00  0.0000000E+00  0.0000000E+00  0.0000000E+00
  0.0000000E+00  0.0000000E+00  0.0000000E+00  0.0000000E+00  0.0000000E+00
  0.0000000E+00  0.0000000E+00  0.0000000E+00  0.0000000E+00  0.0000000E+00
  0.0000000E+00  0.0000000E+00  8.4940411E-06  1.7148990E-05  2.6361171E-05
  3.6880505E-05  4.9350776E-05  6.4142325E-05  8.1601604E-05  1.0205941E-04
  1.2577647E-04  1.5290026E-04  1.8341649E-04  2.1710333E-04  2.5348918E-04
  2.9182201E-04  3.3106020E-04  3.6989147E-04  4.0678575E-04  4.4008574E-04
  4.6813203E-04  4.8941106E-04  5.0270645E-04  5.0722936E-04  5.0270645E-04
  4.8941106E-04  4.6813203E-04  4.4008574E-04  4.0678575E-04  3.6989147E-04
  3.3106020E-04  2.9182201E-04  2.5348918E-04  2.1710333E-04  1.8341649E-04
  1.5290026E-04  1.2577647E-04  1.0205941E-04  8.1601604E-05  6.4142325E-05
  4.9350776E-05  3.6880505E-05  2.6361171E-05  1.7148990E-05  8.4940411E-06
  0.0000000E+00  0.0000000E+00  0.0000000E+00  0.0000000E+00  0.0000000E+00
  0.0000000E+00  0.0000000E+00  0.0000000E+00  0.0000000E+00  0.0000000E+00
  0.0000000E+00  0.0000000E+00  0.0000000E+00  0.0000000E+00  0.0000000E+00
  0.0000000E+00  0.0000000E+00  8.4940411E-06  1.7491851E-05  2.7393113E-05
  3.8941125E-05  5.2710904E-05  6.9340997E-05  8.9421359E-05  1.1351636E-04
  1.4214942E-04  1.7575304E-04  2.1460469E-04  2.5875255E-04  3.0793765E-04
  3.6152056E-04  4.1842443E-04  4.7710794E-04  5.3558219E-04  5.9148396E-04
  6.4221269E-04  6.8513013E-04  7.1780488E-04  7.3826819E-04  7.4523769E-04
  7.3826819E-04  7.1780488E-04  6.8513013E-04  6.4221269E-04  5.9148396E-04
  5.3558219E-04  4.7710794E-04  4.1842443E-04  3.6152056E-04  3.0793765E-04
  2.5875255E-04  2.1460469E-04  1.7575304E-04  1.4214942E-04  1.1351636E-04
  8.9421359E-05  6.9340997E-05  5.2710904E-05  3.8941125E-05  2.7393113E-05
  1.7491851E-05  8.4940411E-06  0.0000000E+00  0.0000000E+00  0.0000000E+00
  0.0000000E+00  0.0000000E+00  0.0000000E+00  0.0000000E+00  0.0000000E+00
  0.0000000E+00  0.0000000E+00  0.0000000E+00  0.0000000E+00  0.0000000E+00
  0.0000000E+00  0.0000000E+00  8.1179078E-06  1.7148990E-05  2.7393113E-05
  3.9610681E-05  5.4445667E-05  7.2647112E-05  9.5044874E-05  1.2250344E-04
  1.5589508E-04  1.9605499E-04  2.4370859E-04  2.9937449E-04  3.6324741E-04
  4.3507031E-04  5.1400857E-04  5.9854507E-04  6.8641815E-04  7.7462650E-04
  8.5952401E-04  9.3702390E-04  1.0029159E-03  1.0532732E-03  1.0848913E-03
  1.0956737E-03  1.0848913E-03  1.0532732E-03  1.0029159E-03  9.3702390E-04
  8.5952401E-04  7.7462650E-04  6.8641815E-04  5.9854507E-04  5.1400857E-04
  4.3507031E-04  3.6324741E-04  2.9937449E-04  2.4370859E-04  1.9605499E-04
  1.5589508E-04  1.2250344E-04  9.5044874E-05  7.2647112E-05  5.4445667E-05
  3.9610681E-05  2.7393113E-05  1.7148990E-05  8.1179078E-06  0.0000000E+00
  0.0000000E+00  0.0000000E+00  0.0000000E+00  0.0000000E+00  0.0000000E+00
  0.0000000E+00  0.0000000E+00  0.0000000E+00  0.0000000E+00  0.0000000E+00
  0.0000000E+00  0.0000000E+00  7.0175179E-06  1.5957885E-05  2.6361171E-05
  3.8941125E-05  5.4445667E-05  7.3779142E-05  9.7987831E-05  1.2824882E-04
  1.6584214E-04  2.1210819E-04  2.6837693E-04  3.3585975E-04  4.1550177E-04
  5.0779810E-04  6.1258534E-04  7.2882825E-04  8.5443113E-04  9.8610832E-04
  1.1193542E-03  1.2485541E-03  1.3672776E-03  1.4687788E-03  1.5466785E-03
  1.5957262E-03  1.6124754E-03  1.5957262E-03  1.5466785E-03  1.4687788E-03
  1.3672776E-03  1.2485541E-03  1.1193542E-03  9.8610832E-04  8.5443113E-04
  7.2882825E-04  6.1258534E-04  5.0779810E-04  4.1550177E-04  3.3585975E-04
  2.6837693E-04  2.1210819E-04  1.6584214E-04  1.2824882E-04  9.7987831E-05
  7.3779142E-05  5.4445667E-05  3.8941125E-05  2.6361171E-05  1.5957885E-05
  7.0175179E-06  0.0000000E+00  0.0000000E+00  0.0000000E+00  0.0000000E+00
  0.0000000E+00  0.0000000E+00  0.0000000E+00  0.0000000E+00  0.0000000E+00
  0.0000000E+00  0.0000000E+00  0.0000000E+00  1.2661324E-05  2.3973203E-05
  3.6880505E-05  5.2710904E-05  7.2647112E-05  9.7987831E-05  1.3022606E-04
  1.7106946E-04  2.2242535E-04  2.8635026E-04  3.6495275E-04  4.6023796E-04
  5.7388627E-04  7.0696714E-04  8.5960224E-04  1.0306080E-03  1.2171621E-03
  1.4145512E-03  1.6160586E-03  1.8130658E-03  1.9954492E-03  2.1523533E-03
  2.2733402E-03  2.3497469E-03  2.3758758E-03  2.3497469E-03  2.2733402E-03
  2.1523533E-03  1.9954492E-03  1.8130658E-03  1.6160586E-03  1.4145512E-03
  1.2171621E-03  1.0306080E-03  8.5960224E-04  7.0696714E-04  5.7388627E-04
  4.6023796E-04  3.6495275E-04  2.8635026E-04  2.2242535E-04  1.7106946E-04
  1.3022606E-04  9.7987831E-05  7.2647112E-05  5.2710904E-05  3.6880505E-05
  2.3973203E-05  1.2661324E-05  0.0000000E+00  0.0000000E+00  0.0000000E+00
  0.0000000E+00  0.0000000E+00  0.0000000E+00  0.0000000E+00  0.0000000E+00
  0.0000000E+00  0.0000000E+00  0.0000000E+00  9.2860519E-06  2.0684294E-05
  3.3561333E-05  4.9350776E-05  6.9340997E-05  9.5044874E-05  1.2824882E-04
  1.7106946E-04  2.2598567E-04  2.9583470E-04  3.8375802E-04  4.9307698E-04
  6.2707689E-04  7.8868150E-04  9.8001282E-04  1.2018512E-03  1.4530414E-03
  1.7299152E-03  2.0258189E-03  2.3308371E-03  2.6318114E-03  2.9128133E-03
  3.1562936E-03  3.3450213E-03  3.4645807E-03  3.5055235E-03  3.4645807E-03
  3.3450213E-03  3.1562936E-03  2.9128133E-03  2.6318114E-03  2.3308371E-03
  2.0258189E-03  1.7299152E-03  1.4530414E-03  1.2018512E-03  9.8001282E-04
  7.8868150E-04  6.2707689E-04  4.9307698E-04  3.8375802E-04  2.9583470E-04
  2.2598567E-04  1.7106946E-04  1.2824882E-04  9.5044874E-05  6.9340997E-05
  4.9350776E-05  3.3561333E-05  2.0684294E-05  9.2860519E-06  0.0000000E+00
  0.0000000E+00  0.0000000E+00  0.0000000E+00  0.0000000E+00  0.0000000E+00
  0.0000000E+00  0.0000000E+00  0.0000000E+00  7.2807420E-06  1.7186567E-05
  2.9417286E-05  4.4672426E-05  6.4142325E-05  8.9421359E-05  1.2250344E-04
  1.6584214E-04  2.2242535E-04  2.9583470E-04  3.9026645E-04  5.1048648E-04
  6.6168397E-04  8.4918382E-04  1.0779800E-03  1.3520670E-03  1.6735817E-03
  2.0418216E-03  2.4522590E-03  2.8956984E-03  3.3576966E-03  3.8183422E-03
  4.2526484E-03  4.6321140E-03  4.9279388E-03  5.1159007E-03  5.1803375E-03
  5.1159007E-03  4.9279388E-03  4.6321140E-03  4.2526484E-03  3.8183422E-03
  3.3576966E-03  2.8956984E-03  2.4522590E-03  2.0418216E-03  1.6735817E-03
  1.3520670E-03  1.0779800E-03  8.4918382E-04  6.6168397E-04  5.1048648E-04
  3.9026645E-04  2.9583470E-04  2.2242535E-04  1.6584214E-04  1.2250344E-04
  8.9421359E-05  6.4142325E-05  4.4672426E-05  2.9417286E-05  1.7186567E-05
  7.2807420E-06  0.0000000E+00  0.0000000E+00  0.0000000E+00  0.0000000E+00
  0.0000000E+00  0.0000000E+00  0.0000000E+00  0.0000000E+00  1.2506136E-05
  2.4534049E-05  3.9013565E-05  5.7472556E-05  8.1601604E-05  1.1351636E-04
  1.5589508E-04  2.1210819E-04  2.8635026E-04  3.8375802E-04  5.1048648E-04
  6.7370204E-04  8.8143488E-04  1.1422202E-03  1.4644507E-03  1.8553790E-03
  2.3197629E-03  2.8582455E-03  3.4656846E-03  4.1297073E-03  4.8296521E-03
  5.5358340E-03  6.2093418E-03  6.8037431E-03  7.2699822E-03  7.5668497E-03
  7.6686433E-03  7.5668497E-03  7.2699822E-03  6.8037431E-03  6.2093418E-03
  5.5358340E-03  4.8296521E-03  4.1297073E-03  3.4656846E-03  2.8582455E-03
  2.3197629E-03  1.8553790E-03  1.4644507E-03  1.1422202E-03  8.8143488E-04
  6.7370204E-04  5.1048648E-04  3.8375802E-04  2.8635026E-04  2.1210819E-04
  1.5589508E-04  1.1351636E-04  8.1601604E-05  5.7472556E-05  3.9013565E-05
  2.4534049E-05  1.2506136E-05  0.0000000E+00  0.0000000E+00  0.0000000E+00
  0.0000000E+00  0.0000000E+00  0.0000000E+00  0.0000000E+00  7.8713520E-06
  1.9202191E-05  3.2672277E-05  4.9786289E-05  7.2198040E-05  1.0205941E-04
  1.4214942E-04  1.9605499E-04  2.6837693E-04  3.6495275E-04  4.9307698E-04
  6.6168397E-04  8.8143488E-04  1.1646212E-03  1.5247642E-03  1.9757615E-03
  2.5304372E-03  3.1984190E-03  3.9834511E-03  4.8805415E-03  5.8735646E-03
  6.9336444E-03  8.0176014E-03  9.0657510E-03  1.0002699E-02  1.0742179E-02
  1.1212885E-02  1.1374004E-02  1.1212885E-02  1.0742179E-02  1.0002699E-02
  9.0657510E-03  8.0176014E-03  6.9336444E-03  5.8735646E-03  4.8805415E-03
  3.9834511E-03  3.1984190E-03  2.5304372E-03  1.9757615E-03  1.5247642E-03
  1.1646212E-03  8.8143488E-04  6.6168397E-04  4.9307698E-04  3.6495275E-04
  2.6837693E-04  1.9605499E-04  1.4214942E-04  1.0205941E-04  7.2198040E-05
  4.9786289E-05  3.2672277E-05  1.9202191E-05  7.8713520E-06  0.0000000E+00
  0.0000000E+00  0.0000000E+00  0.0000000E+00  0.0000000E+00  0.0000000E+00
  1.2899167E-05  2.5791049E-05  4.1484465E-05  6.1840889E-05  8.9015404E-05
  1.2577647E-04  1.7575304E-04  2.4370859E-04  3.3585975E-04  4.6023796E-04
  6.2707689E-04  8.4918382E-04  1.1422202E-03  1.5247642E-03  2.0179625E-03
  2.6445051E-03  3.4266047E-03  4.3827188E-03  5.5230404E-03  6.8444647E-03
  8.3265994E-03  9.9300919E-03  1.1594759E-02  1.3231467E-02  1.4721051E-02
  1.5902806E-02  1.6650373E-02  1.6904760E-02  1.6650373E-02  1.5902806E-02
  1.4721051E-02  1.3231467E-02  1.1594759E-02  9.9300919E-03  8.3265994E-03
  6.8444647E-03  5.5230404E-03  4.3827188E-03  3.4266047E-03  2.6445051E-03
  2.0179625E-03  1.5247642E-03  1.1422202E-03  8.4918382E-04  6.2707689E-04
  4.6023796E-04  3.3585975E-04  2.4370859E-04  1.7575304E-04  1.2577647E-04
  8.9015404E-05  6.1840889E-05  4.1484465E-05  2.5791049E-05  1.2899167E-05
  0.0000000E+00  0.0000000E+00  0.0000000E+00  0.0000000E+00  0.0000000E+00
  7.4780432E-06  1.8943865E-05  3.2986849E-05  5.1116112E-05  7.5250122E-05
  1.0801027E-04  1.5290026E-04  2.1460469E-04  2.9937449E-04  4.1550177E-04
  5.7388627E-04  7.8868150E-04  1.0779800E-03  1.4644507E-03  1.9757615E-03
  2.6445051E-03  3.5071818E-03  4.6016085E-03  5.9620193E-03  7.6114363E-03
  9.5522245E-03  1.1758696E-02  1.4177697E-02  1.6732208E-02  1.9292943E-02
  2.1692725E-02  2.3599293E-02  2.4781508E-02  2.5178373E-02  2.4781508E-02
  2.3599293E-02  2.1692725E-02  1.9292943E-02  1.6732208E-02  1.4177697E-02
  1.1758696E-02  9.5522245E-03  7.6114363E-03  5.9620193E-03  4.6016085E-03
  3.5071818E-03  2.6445051E-03  1.9757615E-03  1.4644507E-03  1.0779800E-03
  7.8868150E-04  5.7388627E-04  4.1550177E-04  2.9937449E-04  2.1460469E-04
  1.5290026E-04  1.0801027E-04  7.5250122E-05  5.1116112E-05  3.2986849E-05
  1.8943865E-05  7.4780432E-06  0.0000000E+00  0.0000000E+00  0.0000000E+00
  0.0000000E+00  1.1553480E-05  2.4423805E-05  4.0455812E-05  6.1498387E-05
  8.9978064E-05  1.2914963E-04  1.8341649E-04  2.5875255E-04  3.6324741E-04
  5.0779810E-04  7.0696714E-04  9.8001282E-04  1.3520670E-03  1.8553790E-03
  2.5304372E-03  3.4266047E-03  4.6016085E-03  6.1187637E-03  8.0402382E-03
  1.0414368E-02  1.3256695E-02  1.6532261E-02  2.0163478E-02  2.4074715E-02
  2.8065072E-02  3.2024466E-02  3.5138950E-02  3.6973055E-02  3.7573222E-02
  3.6973055E-02  3.5138950E-02  3.2024466E-02  2.8065072E-02  2.4074715E-02
  2.0163478E-02  1.6532261E-02  1.3256695E-02  1.0414368E-02  8.0402382E-03
  6.1187637E-03  4.6016085E-03  3.4266047E-03  2.5304372E-03  1.8553790E-03
  1.3520670E-03  9.8001282E-04  7.0696714E-04  5.0779810E-04  3.6324741E-04
  2.5875255E-04  1.8341649E-04  1.2914963E-04  8.9978064E-05  6.1498387E-05
  4.0455812E-05  2.4423805E-05  1.1553480E-05  0.0000000E+00  0.0000000E+00
  0.0000000E+00  0.0000000E+00  1.5178155E-05  2.9969844E-05  4.8260747E-05
  7.2571005E-05  1.0590536E-04  1.5226177E-04  2.1710333E-04  3.0793765E-04
  4.3507031E-04  6.1258534E-04  8.5960224E-04  1.2018512E-03  1.6735817E-03
  2.3197629E-03  3.1984190E-03  4.3827188E-03  5.9620193E-03  8.0402382E-03
  1.0728379E-02  1.4125436E-02  1.8279895E-02  2.3135034E-02  2.8533990E-02
  3.4519747E-02  4.0577170E-02  4.7433376E-02  5.2602850E-02  5.5284794E-02
  5.6133978E-02  5.5284794E-02  5.2602850E-02  4.7433376E-02  4.0577170E-02
  3.4519747E-02  2.8533990E-02  2.3135034E-02  1.8279895E-02  1.4125436E-02
  1.0728379E-02  8.0402382E-03  5.9620193E-03  4.3827188E-03  3.1984190E-03
  2.3197629E-03  1.6735817E-03  1.2018512E-03  8.5960224E-04  6.1258534E-04
  4.3507031E-04  3.0793765E-04  2.1710333E-04  1.5226177E-04  1.0590536E-04
  7.2571005E-05  4.8260747E-05  2.9969844E-05  1.5178155E-05  0.0000000E+00
  0.0000000E+00  0.0000000E+00  7.7971654E-06  2.0388174E-05  3.5977402E-05
  5.6424335E-05  8.4210311E-05  1.2280677E-04  1.7701126E-04  2.5348918E-04
  3.6152056E-04  5.1400857E-04  7.2882825E-04  1.0306080E-03  1.4530414E-03
  2.0418216E-03  2.8582455E-03  3.9834511E-03  5.5230404E-03  7.6114363E-03
  1.0414368E-02  1.4125436E-02  1.8945878E-02  2.5018239E-02  3.2251451E-02
  4.0088672E-02  4.9455155E-02  5.7653051E-02  6.4212002E-02  6.8755016E-02
  7.1562074E-02  7.2499432E-02  7.1562074E-02  6.8755016E-02  6.4212002E-02
  5.7653051E-02  4.9455155E-02  4.0088672E-02  3.2251451E-02  2.5018239E-02
  1.8945878E-02  1.4125436E-02  1.0414368E-02  7.6114363E-03  5.5230404E-03
  3.9834511E-03  2.8582455E-03  2.0418216E-03  1.4530414E-03  1.0306080E-03
  7.2882825E-04  5.1400857E-04  3.6152056E-04  2.5348918E-04  1.7701126E-04
  1.2280677E-04  8.4210311E-05  5.6424335E-05  3.5977402E-05  2.0388174E-05
  7.7971654E-06  0.0000000E+00  0.0000000E+00  1.1410635E-05  2.4795096E-05
  4.1881925E-05  6.4705768E-05  9.6168144E-05  1.4032995E-04  2.0288062E-04
  2.9182201E-04  4.1842443E-04  5.9854507E-04  8.5443113E-04  1.2171621E-03
  1.7299152E-03  2.4522590E-03  3.4656846E-03  4.8805415E-03  6.8444647E-03
  9.5522245E-03  1.3256695E-02  1.8279895E-02  2.5018239E-02  3.3902075E-02
  4.5026116E-02  5.5412106E-02  6.5044008E-02  7.2960749E-02  7.9592057E-02
  8.4452577E-02  8.7429069E-02  8.8429727E-02  8.7429069E-02  8.4452577E-02
  7.9592057E-02  7.2960749E-02  6.5044008E-02  5.5412106E-02  4.5026116E-02
  3.3902075E-02  2.5018239E-02  1.8279895E-02  1.3256695E-02  9.5522245E-03
  6.8444647E-03  4.8805415E-03  3.4656846E-03  2.4522590E-03  1.7299152E-03
  1.2171621E-03  8.5443113E-04  5.9854507E-04  4.1842443E-04  2.9182201E-04
  2.0288062E-04  1.4032995E-04  9.6168144E-05  6.4705768E-05  4.1881925E-05
  2.4795096E-05  1.1410635E-05  0.0000000E+00  0.0000000E+00  1.3886222E-05
  2.8776500E-05  4.7584439E-05  7.2900009E-05  1.0813584E-04  1.5800992E-04
  2.2917140E-04  3.3106020E-04  4.7710794E-04  6.8641815E-04  9.8610832E-04
  1.4145512E-03  2.0258189E-03  2.8956984E-03  4.1297073E-03  5.8735646E-03
  8.3265994E-03  1.1758696E-02  1.6532261E-02  2.3135034E-02  3.2251451E-02
  4.5026116E-02  5.7768881E-02  6.8650007E-02  7.8659929E-02  8.7229326E-02
  9.4207071E-02  9.9343464E-02  0.1024864      0.1035439      0.1024864    
  9.9343464E-02  9.4207071E-02  8.7229326E-02  7.8659929E-02  6.8650007E-02
  5.7768881E-02  4.5026116E-02  3.2251451E-02  2.3135034E-02  1.6532261E-02
  1.1758696E-02  8.3265994E-03  5.8735646E-03  4.1297073E-03  2.8956984E-03
  2.0258189E-03  1.4145512E-03  9.8610832E-04  6.8641815E-04  4.7710794E-04
  3.3106020E-04  2.2917140E-04  1.5800992E-04  1.0813584E-04  7.2900009E-05
  4.7584439E-05  2.8776500E-05  1.3886222E-05  0.0000000E+00  0.0000000E+00
  1.6415404E-05  3.2643267E-05  5.3067950E-05  8.0808255E-05  1.1975622E-04
  1.7528466E-04  2.5502153E-04  3.6989147E-04  5.3558219E-04  7.7462650E-04
  1.1193542E-03  1.6160586E-03  2.3308371E-03  3.3576966E-03  4.8296521E-03
  6.9336444E-03  9.9300919E-03  1.4177697E-02  2.0163478E-02  2.8533990E-02
  4.0088672E-02  5.5412106E-02  6.8650007E-02  8.0571882E-02  9.1210239E-02
  0.1003104      0.1076620      0.1130627      0.1163638      0.1174743    
  0.1163638      0.1130627      0.1076620      0.1003104      9.1210239E-02
  8.0571882E-02  6.8650007E-02  5.5412106E-02  4.0088672E-02  2.8533990E-02
  2.0163478E-02  1.4177697E-02  9.9300919E-03  6.9336444E-03  4.8296521E-03
  3.3576966E-03  2.3308371E-03  1.6160586E-03  1.1193542E-03  7.7462650E-04
  5.3558219E-04  3.6989147E-04  2.5502153E-04  1.7528466E-04  1.1975622E-04
  8.0808255E-05  5.3067950E-05  3.2643267E-05  1.6415404E-05  0.0000000E+00
  7.5821799E-06  2.0422083E-05  3.6627254E-05  5.8249159E-05  8.8188230E-05
  1.3062279E-04  1.9151607E-04  2.7944156E-04  4.0678575E-04  5.9148396E-04
  8.5952401E-04  1.2485541E-03  1.8130658E-03  2.6318114E-03  3.8183422E-03
  5.5358340E-03  8.0176014E-03  1.1594759E-02  1.6732208E-02  2.4074715E-02
  3.4519747E-02  4.9455155E-02  6.5044008E-02  7.8659929E-02  9.1210239E-02
  0.1023927      0.1119441      0.1196375      0.1252794      0.1287244    
  0.1298828      0.1287244      0.1252794      0.1196375      0.1119441    
  0.1023927      9.1210239E-02  7.8659929E-02  6.5044008E-02  4.9455155E-02
  3.4519747E-02  2.4074715E-02  1.6732208E-02  1.1594759E-02  8.0176014E-03
  5.5358340E-03  3.8183422E-03  2.6318114E-03  1.8130658E-03  1.2485541E-03
  8.5952401E-04  5.9148396E-04  4.0678575E-04  2.7944156E-04  1.9151607E-04
  1.3062279E-04  8.8188230E-05  5.8249159E-05  3.6627254E-05  2.0422083E-05
  7.5821799E-06  1.0499958E-05  2.3289876E-05  4.0035065E-05  6.2811247E-05
  9.4727431E-05  1.4029343E-04  2.0602549E-04  3.0137307E-04  4.4008574E-04
  6.4221269E-04  9.3702390E-04  1.3672776E-03  1.9954492E-03  2.9128133E-03
  4.2526484E-03  6.2093418E-03  9.0657510E-03  1.3231467E-02  1.9292943E-02
  2.8065072E-02  4.0577170E-02  5.7653051E-02  7.2960749E-02  8.7229326E-02
  0.1003104      0.1119441      0.1218692      0.1298529      0.1357016    
  0.1392704      0.1404700      0.1392704      0.1357016      0.1298529    
  0.1218692      0.1119441      0.1003104      8.7229326E-02  7.2960749E-02
  5.7653051E-02  4.0577170E-02  2.8065072E-02  1.9292943E-02  1.3231467E-02
  9.0657510E-03  6.2093418E-03  4.2526484E-03  2.9128133E-03  1.9954492E-03
  1.3672776E-03  9.3702390E-04  6.4221269E-04  4.4008574E-04  3.0137307E-04
  2.0602549E-04  1.4029343E-04  9.4727431E-05  6.2811247E-05  4.0035065E-05
  2.3289876E-05  1.0499958E-05  1.1883331E-05  2.5280329E-05  4.2702803E-05
  6.6534303E-05  1.0013572E-04  1.4833878E-04  2.1814718E-04  3.1976818E-04
  4.6813203E-04  6.8513013E-04  1.0029159E-03  1.4687788E-03  2.1523533E-03
  3.1562936E-03  4.6321140E-03  6.8037431E-03  1.0002699E-02  1.4721051E-02
  2.1692725E-02  3.2024466E-02  4.7433376E-02  6.4212002E-02  7.9592057E-02
  9.4207071E-02  0.1076620      0.1196375      0.1298529      0.1380662    
  0.1440800      0.1477483      0.1489812      0.1477483      0.1440800    
  0.1380662      0.1298529      0.1196375      0.1076620      9.4207071E-02
  7.9592057E-02  6.4212002E-02  4.7433376E-02  3.2024466E-02  2.1692725E-02
  1.4721051E-02  1.0002699E-02  6.8037431E-03  4.6321140E-03  3.1562936E-03
  2.1523533E-03  1.4687788E-03  1.0029159E-03  6.8513013E-04  4.6813203E-04
  3.1976818E-04  2.1814718E-04  1.4833878E-04  1.0013572E-04  6.6534303E-05
  4.2702803E-05  2.5280329E-05  1.1883331E-05  1.2639253E-05  2.6586287E-05
  4.4604993E-05  6.9280424E-05  1.0417605E-04  1.5438281E-04  2.2728597E-04
  3.3368013E-04  4.8941106E-04  7.1780488E-04  1.0532732E-03  1.5466785E-03
  2.2733402E-03  3.3450213E-03  4.9279388E-03  7.2699822E-03  1.0742179E-02
  1.5902806E-02  2.3599293E-02  3.5138950E-02  5.2602850E-02  6.8755016E-02
  8.4452577E-02  9.9343464E-02  0.1130627      0.1252794      0.1357016    
  0.1440800      0.1502137      0.1539543      0.1552114      0.1539543    
  0.1502137      0.1440800      0.1357016      0.1252794      0.1130627    
  9.9343464E-02  8.4452577E-02  6.8755016E-02  5.2602850E-02  3.5138950E-02
  2.3599293E-02  1.5902806E-02  1.0742179E-02  7.2699822E-03  4.9279388E-03
  3.3450213E-03  2.2733402E-03  1.5466785E-03  1.0532732E-03  7.1780488E-04
  4.8941106E-04  3.3368013E-04  2.2728597E-04  1.5438281E-04  1.0417605E-04
  6.9280424E-05  4.4604993E-05  2.6586287E-05  1.2639253E-05  1.3038702E-05
  2.7334139E-05  4.5745339E-05  7.0962269E-05  1.0667286E-04  1.5813328E-04
  2.3297124E-04  3.4235357E-04  5.0270645E-04  7.3826819E-04  1.0848913E-03
  1.5957262E-03  2.3497469E-03  3.4645807E-03  5.1159007E-03  7.5668497E-03
  1.1212885E-02  1.6650373E-02  2.4781508E-02  3.6973055E-02  5.5284794E-02
  7.1562074E-02  8.7429069E-02  0.1024864      0.1163638      0.1287244    
  0.1392704      0.1477483      0.1539543      0.1577389      0.1590107    
  0.1577389      0.1539543      0.1477483      0.1392704      0.1287244    
  0.1163638      0.1024864      8.7429069E-02  7.1562074E-02  5.5284794E-02