<VTKFile type="RectilinearGrid" version="0.1" format="ascii">
 <RectilinearGrid WholeExtent="1 19 1 19 1 9">
  <Piece Extent="1 19 1 19 1 9">
   <Coordinates>
    <DataArray type="Float32" Name="X_COORDINATES" NumberOfComponents="1" format="ascii">
   10.50000       11.00000       11.50000       12.00000       12.50000    
   13.00000       13.50000       14.00000       14.50000       15.00000    
   15.50000       16.00000       16.50000       17.00000       17.50000    
   18.00000       18.50000       19.00000       19.50000    
    </DataArray>
    <DataArray type="Float32" Name="Y_COORDINATES" NumberOfComponents="1" format="ascii">
   10.50000       11.00000       11.50000       12.00000       12.50000    
   13.00000       13.50000       14.00000       14.50000       15.00000    
   15.50000       16.00000       16.50000       17.00000       17.50000    
   18.00000       18.50000       19.00000       19.50000    
    </DataArray>
    <DataArray type="Float32" Name="Z_COORDINATES" NumberOfComponents="1" format="ascii">
   13.00000       13.50000       14.00000       14.50000       15.00000    
   15.50000       16.00000       16.50000       17.00000    
    </DataArray>
   </Coordinates>
   <PointData>
         <DataArray type="Float32" Name="psi_squared[nm^-3]" NumberOfComponents="1" format="ascii">
  9.1498606E-07  3.5703790E-06  7.7062505E-06  1.2917752E-05  1.8694747E-05
  2.4471741E-05  2.9683244E-05  3.3819117E-05  3.6474510E-05  3.7389495E-05
  3.6474510E-05  3.3819117E-05  2.9683244E-05  2.4471741E-05  1.8694747E-05
  1.2917752E-05  7.7062505E-06  3.5703790E-06  9.1498606E-07  3.5703790E-06
  1.3932023E-05  3.0070660E-05  5.0406532E-05  7.2949020E-05  9.5491501E-05
  1.1582737E-04  1.3196601E-04  1.4232766E-04  1.4589804E-04  1.4232766E-04
  1.3196601E-04  1.1582737E-04  9.5491501E-05  7.2949020E-05  5.0406532E-05
  3.0070660E-05  1.3932023E-05  3.5703790E-06  7.7062505E-06  3.0070660E-05
  6.4904045E-05  1.0879667E-04  1.5745203E-04  2.0610738E-04  2.5000001E-04
  2.8483340E-04  3.0719780E-04  3.1490406E-04  3.0719780E-04  2.8483340E-04
  2.5000001E-04  2.0610738E-04  1.5745203E-04  1.0879667E-04  6.4904045E-05
  3.0070660E-05  7.7062505E-06  1.2917752E-05  5.0406532E-05  1.0879667E-04
  1.8237255E-04  2.6393202E-04  3.4549151E-04  4.1906736E-04  4.7745751E-04
  5.1494630E-04  5.2786403E-04  5.1494630E-04  4.7745751E-04  4.1906736E-04
  3.4549151E-04  2.6393202E-04  1.8237255E-04  1.0879667E-04  5.0406532E-05
  1.2917752E-05  1.8694747E-05  7.2949020E-05  1.5745203E-04  2.6393202E-04
  3.8196601E-04  5.0000002E-04  6.0648000E-04  6.9098303E-04  7.4523728E-04
  7.6393201E-04  7.4523728E-04  6.9098303E-04  6.0648000E-04  5.0000002E-04
  3.8196601E-04  2.6393202E-04  1.5745203E-04  7.2949020E-05  1.8694747E-05
  2.4471741E-05  9.5491501E-05  2.0610738E-04  3.4549151E-04  5.0000002E-04
  6.5450848E-04  7.9389260E-04  9.0450852E-04  9.7552827E-04  1.0000000E-03
  9.7552827E-04  9.0450852E-04  7.9389260E-04  6.5450848E-04  5.0000002E-04
  3.4549151E-04  2.0610738E-04  9.5491501E-05  2.4471741E-05  2.9683244E-05
  1.1582737E-04  2.5000001E-04  4.1906736E-04  6.0648000E-04  7.9389260E-04
  9.6296001E-04  1.0971326E-03  1.1832768E-03  1.2129600E-03  1.1832768E-03
  1.0971326E-03  9.6296001E-04  7.9389260E-04  6.0648000E-04  4.1906736E-04
  2.5000001E-04  1.1582737E-04  2.9683244E-05  3.3819117E-05  1.3196601E-04
  2.8483340E-04  4.7745751E-04  6.9098303E-04  9.0450852E-04  1.0971326E-03
  1.2500000E-03  1.3481469E-03  1.3819661E-03  1.3481469E-03  1.2500000E-03
  1.0971326E-03  9.0450852E-04  6.9098303E-04  4.7745751E-04  2.8483340E-04
  1.3196601E-04  3.3819117E-05  3.6474510E-05  1.4232766E-04  3.0719780E-04
  5.1494630E-04  7.4523728E-04  9.7552827E-04  1.1832768E-03  1.3481469E-03
  1.4540000E-03  1.4904746E-03  1.4540000E-03  1.3481469E-03  1.1832768E-03
  9.7552827E-04  7.4523728E-04  5.1494630E-04  3.0719780E-04  1.4232766E-04
  3.6474510E-05  3.7389495E-05  1.4589804E-04  3.1490406E-04  5.2786403E-04
  7.6393201E-04  1.0000000E-03  1.2129600E-03  1.3819661E-03  1.4904746E-03
  1.5278640E-03  1.4904746E-03  1.3819661E-03  1.2129600E-03  1.0000000E-03
  7.6393201E-04  5.2786403E-04  3.1490406E-04  1.4589804E-04  3.7389495E-05
  3.6474510E-05  1.4232766E-04  3.0719780E-04  5.1494630E-04  7.4523728E-04
  9.7552827E-04  1.1832768E-03  1.3481469E-03  1.4540000E-03  1.4904746E-03
  1.4540000E-03  1.3481469E-03  1.1832768E-03  9.7552827E-04  7.4523728E-04
  5.1494630E-04  3.0719780E-04  1.4232766E-04  3.6474510E-05  3.3819117E-05
  1.3196601E-04  2.8483340E-04  4.7745751E-04  6.9098303E-04  9.0450852E-04
  1.0971326E-03  1.2500000E-03  1.3481469E-03  1.3819661E-03  1.3481469E-03
  1.2500000E-03  1.0971326E-03  9.0450852E-04  6.9098303E-04  4.7745751E-04
  2.8483340E-04  1.3196601E-04  3.3819117E-05  2.9683244E-05  1.1582737E-04
  2.5000001E-04  4.1906736E-04  6.0648000E-04  7.9389260E-04  9.6296001E-04
  1.0971326E-03  1.1832768E-03  1.2129600E-03  1.1832768E-03  1.0971326E-03
  9.6296001E-04  7.9389260E-04  6.0648000E-04  4.1906736E-04  2.5000001E-04
  1.1582737E-04  2.9683244E-05  2.4471741E-05  9.5491501E-05  2.0610738E-04
  3.4549151E-04  5.0000002E-04  6.5450848E-04  7.9389260E-04  9.0450852E-04
  9.7552827E-04  1.0000000E-03  9.7552827E-04  9.0450852E-04  7.9389260E-04
  6.5450848E-04  5.0000002E-04  3.4549151E-04  2.0610738E-04  9.5491501E-05
  2.4471741E-05  1.8694747E-05  7.2949020E-05  1.5745203E-04  2.6393202E-04
  3.8196601E-04  5.0000002E-04  6.0648000E-04  6.9098303E-04  7.4523728E-04
  7.6393201E-04  7.4523728E-04  6.9098303E-04  6.0648000E-04  5.0000002E-04
  3.8196601E-04  2.6393202E-04  1.5745203E-04  7.2949020E-05  1.8694747E-05
  1.2917752E-05  5.0406532E-05  1.0879667E-04  1.8237255E-04  2.6393202E-04
  3.4549151E-04  4.1906736E-04  4.7745751E-04  5.1494630E-04  5.2786403E-04
  5.1494630E-04  4.7745751E-04  4.1906736E-04  3.4549151E-04  2.6393202E-04
  1.8237255E-04  1.0879667E-04  5.0406532E-05  1.2917752E-05  7.7062505E-06
  3.0070660E-05  6.4904045E-05  1.0879667E-04  1.5745203E-04  2.0610738E-04
  2.5000001E-04  2.8483340E-04  3.0719780E-04  3.1490406E-04  3.0719780E-04
  2.8483340E-04  2.5000001E-04  2.0610738E-04  1.5745203E-04  1.0879667E-04
  6.4904045E-05  3.0070660E-05  7.7062505E-06  3.5703790E-06  1.3932023E-05
  3.0070660E-05  5.0406532E-05  7.2949020E-05  9.5491501E-05  1.1582737E-04
  1.3196601E-04  1.4232766E-04  1.4589804E-04  1.4232766E-04  1.3196601E-04
  1.1582737E-04  9.5491501E-05  7.2949020E-05  5.0406532E-05  3.0070660E-05
  1.3932023E-05  3.5703790E-06  9.1498606E-07  3.5703790E-06  7.7062505E-06
  1.2917752E-05  1.8694747E-05  2.4471741E-05  2.9683244E-05  3.3819117E-05
  3.6474510E-05  3.7389495E-05  3.6474510E-05  3.3819117E-05  2.9683244E-05
  2.4471741E-05  1.8694747E-05  1.2917752E-05  7.7062505E-06  3.5703790E-06
  9.1498606E-07  3.3104507E-06  1.2917752E-05  2.7881477E-05  4.6736866E-05
  6.7638233E-05  8.8539593E-05  1.0739498E-04  1.2235870E-04  1.3196601E-04
  1.3527647E-04  1.3196601E-04  1.2235870E-04  1.0739498E-04  8.8539593E-05
  6.7638233E-05  4.6736866E-05  2.7881477E-05  1.2917752E-05  3.3104507E-06
  1.2917752E-05  5.0406532E-05  1.0879667E-04  1.8237255E-04  2.6393202E-04
  3.4549151E-04  4.1906736E-04  4.7745751E-04  5.1494630E-04  5.2786403E-04
  5.1494630E-04  4.7745751E-04  4.1906736E-04  3.4549151E-04  2.6393202E-04
  1.8237255E-04  1.0879667E-04  5.0406532E-05  1.2917752E-05  2.7881477E-05
  1.0879667E-04  2.3482504E-04  3.9363006E-04  5.6966679E-04  7.4570347E-04
  9.0450852E-04  1.0305368E-03  1.1114521E-03  1.1393336E-03  1.1114521E-03
  1.0305368E-03  9.0450852E-04  7.4570347E-04  5.6966679E-04  3.9363006E-04
  2.3482504E-04  1.0879667E-04  2.7881477E-05  4.6736866E-05  1.8237255E-04
  3.9363006E-04  6.5983005E-04  9.5491501E-04  1.2500000E-03  1.5162000E-03
  1.7274575E-03  1.8630932E-03  1.9098300E-03  1.8630932E-03  1.7274575E-03
  1.5162000E-03  1.2500000E-03  9.5491501E-04  6.5983005E-04  3.9363006E-04
  1.8237255E-04  4.6736866E-05  6.7638233E-05  2.6393202E-04  5.6966679E-04
  9.5491501E-04  1.3819661E-03  1.8090170E-03  2.1942651E-03  2.4999999E-03
  2.6962939E-03  2.7639321E-03  2.6962939E-03  2.4999999E-03  2.1942651E-03
  1.8090170E-03  1.3819661E-03  9.5491501E-04  5.6966679E-04  2.6393202E-04
  6.7638233E-05  8.8539593E-05  3.4549151E-04  7.4570347E-04  1.2500000E-03
  1.8090170E-03  2.3680341E-03  2.8723306E-03  3.2725425E-03  3.5294944E-03
  3.6180341E-03  3.5294944E-03  3.2725425E-03  2.8723306E-03  2.3680341E-03
  1.8090170E-03  1.2500000E-03  7.4570347E-04  3.4549151E-04  8.8539593E-05
  1.0739498E-04  4.1906736E-04  9.0450852E-04  1.5162000E-03  2.1942651E-03
  2.8723306E-03  3.4840221E-03  3.9694631E-03  4.2811357E-03  4.3885303E-03
  4.2811357E-03  3.9694631E-03  3.4840221E-03  2.8723306E-03  2.1942651E-03
  1.5162000E-03  9.0450852E-04  4.1906736E-04  1.0739498E-04  1.2235870E-04
  4.7745751E-04  1.0305368E-03  1.7274575E-03  2.4999999E-03  3.2725425E-03
  3.9694631E-03  4.5225425E-03  4.8776413E-03  4.9999999E-03  4.8776413E-03
  4.5225425E-03  3.9694631E-03  3.2725425E-03  2.4999999E-03  1.7274575E-03
  1.0305368E-03  4.7745751E-04  1.2235870E-04  1.3196601E-04  5.1494630E-04
  1.1114521E-03  1.8630932E-03  2.6962939E-03  3.5294944E-03  4.2811357E-03
  4.8776413E-03  5.2606217E-03  5.3925877E-03  5.2606217E-03  4.8776413E-03
  4.2811357E-03  3.5294944E-03  2.6962939E-03  1.8630932E-03  1.1114521E-03
  5.1494630E-04  1.3196601E-04  1.3527647E-04  5.2786403E-04  1.1393336E-03
  1.9098300E-03  2.7639321E-03  3.6180341E-03  4.3885303E-03  4.9999999E-03
  5.3925877E-03  5.5278642E-03  5.3925877E-03  4.9999999E-03  4.3885303E-03
  3.6180341E-03  2.7639321E-03  1.9098300E-03  1.1393336E-03  5.2786403E-04
  1.3527647E-04  1.3196601E-04  5.1494630E-04  1.1114521E-03  1.8630932E-03
  2.6962939E-03  3.5294944E-03  4.2811357E-03  4.8776413E-03  5.2606217E-03
  5.3925877E-03  5.2606217E-03  4.8776413E-03  4.2811357E-03  3.5294944E-03
  2.6962939E-03  1.8630932E-03  1.1114521E-03  5.1494630E-04  1.3196601E-04
  1.2235870E-04  4.7745751E-04  1.0305368E-03  1.7274575E-03  2.4999999E-03
  3.2725425E-03  3.9694631E-03  4.5225425E-03  4.8776413E-03  4.9999999E-03
  4.8776413E-03  4.5225425E-03  3.9694631E-03  3.2725425E-03  2.4999999E-03
  1.7274575E-03  1.0305368E-03  4.7745751E-04  1.2235870E-04  1.0739498E-04
  4.1906736E-04  9.0450852E-04  1.5162000E-03  2.1942651E-03  2.8723306E-03
  3.4840221E-03  3.9694631E-03  4.2811357E-03  4.3885303E-03  4.2811357E-03
  3.9694631E-03  3.4840221E-03  2.8723306E-03  2.1942651E-03  1.5162000E-03
  9.0450852E-04  4.1906736E-04  1.0739498E-04  8.8539593E-05  3.4549151E-04
  7.4570347E-04  1.2500000E-03  1.8090170E-03  2.3680341E-03  2.8723306E-03
  3.2725425E-03  3.5294944E-03  3.6180341E-03  3.5294944E-03  3.2725425E-03
  2.8723306E-03  2.3680341E-03  1.8090170E-03  1.2500000E-03  7.4570347E-04
  3.4549151E-04  8.8539593E-05  6.7638233E-05  2.6393202E-04  5.6966679E-04
  9.5491501E-04  1.3819661E-03  1.8090170E-03  2.1942651E-03  2.4999999E-03
  2.6962939E-03  2.7639321E-03  2.6962939E-03  2.4999999E-03  2.1942651E-03
  1.8090170E-03  1.3819661E-03  9.5491501E-04  5.6966679E-04  2.6393202E-04
  6.7638233E-05  4.6736866E-05  1.8237255E-04  3.9363006E-04  6.5983005E-04
  9.5491501E-04  1.2500000E-03  1.5162000E-03  1.7274575E-03  1.8630932E-03
  1.9098300E-03  1.8630932E-03  1.7274575E-03  1.5162000E-03  1.2500000E-03
  9.5491501E-04  6.5983005E-04  3.9363006E-04  1.8237255E-04  4.6736866E-05
  2.7881477E-05  1.0879667E-04  2.3482504E-04  3.9363006E-04  5.6966679E-04
  7.4570347E-04  9.0450852E-04  1.0305368E-03  1.1114521E-03  1.1393336E-03
  1.1114521E-03  1.0305368E-03  9.0450852E-04  7.4570347E-04  5.6966679E-04
  3.9363006E-04  2.3482504E-04  1.0879667E-04  2.7881477E-05  1.2917752E-05
  5.0406532E-05  1.0879667E-04  1.8237255E-04  2.6393202E-04  3.4549151E-04
  4.1906736E-04  4.7745751E-04  5.1494630E-04  5.2786403E-04  5.1494630E-04
  4.7745751E-04  4.1906736E-04  3.4549151E-04  2.6393202E-04  1.8237255E-04
  1.0879667E-04  5.0406532E-05  1.2917752E-05  3.3104507E-06  1.2917752E-05
  2.7881477E-05  4.6736866E-05  6.7638233E-05  8.8539593E-05  1.0739498E-04
  1.2235870E-04  1.3196601E-04  1.3527647E-04  1.3196601E-04  1.2235870E-04
  1.0739498E-04  8.8539593E-05  6.7638233E-05  4.6736866E-05  2.7881477E-05
  1.2917752E-05  3.3104507E-06  6.2714075E-06  2.4471741E-05  5.2819425E-05
  8.8539593E-05  1.2813571E-04  1.6773181E-04  2.0345199E-04  2.3179967E-04
  2.5000001E-04  2.5627142E-04  2.5000001E-04  2.3179967E-04  2.0345199E-04
  1.6773181E-04  1.2813571E-04  8.8539593E-05  5.2819425E-05  2.4471741E-05
  6.2714075E-06  2.4471741E-05  9.5491501E-05  2.0610738E-04  3.4549151E-04
  5.0000002E-04  6.5450848E-04  7.9389260E-04  9.0450852E-04  9.7552827E-04
  1.0000000E-03  9.7552827E-04  9.0450852E-04  7.9389260E-04  6.5450848E-04
  5.0000002E-04  3.4549151E-04  2.0610738E-04  9.5491501E-05  2.4471741E-05
  5.2819425E-05  2.0610738E-04  4.4485895E-04  7.4570347E-04  1.0791923E-03
  1.4126810E-03  1.7135255E-03  1.9522770E-03  2.1055650E-03  2.1583845E-03
  2.1055650E-03  1.9522770E-03  1.7135255E-03  1.4126810E-03  1.0791923E-03
  7.4570347E-04  4.4485895E-04  2.0610738E-04  5.2819425E-05  8.8539593E-05
  3.4549151E-04  7.4570347E-04  1.2500000E-03  1.8090170E-03  2.3680341E-03
  2.8723306E-03  3.2725425E-03  3.5294944E-03  3.6180341E-03  3.5294944E-03
  3.2725425E-03  2.8723306E-03  2.3680341E-03  1.8090170E-03  1.2500000E-03
  7.4570347E-04  3.4549151E-04  8.8539593E-05  1.2813571E-04  5.0000002E-04
  1.0791923E-03  1.8090170E-03  2.6180339E-03  3.4270510E-03  4.1568759E-03
  4.7360682E-03  5.1079323E-03  5.2360678E-03  5.1079323E-03  4.7360682E-03
  4.1568759E-03  3.4270510E-03  2.6180339E-03  1.8090170E-03  1.0791923E-03
  5.0000002E-04  1.2813571E-04  1.6773181E-04  6.5450848E-04  1.4126810E-03
  2.3680341E-03  3.4270510E-03  4.4860682E-03  5.4414212E-03  6.1995937E-03
  6.6863704E-03  6.8541020E-03  6.6863704E-03  6.1995937E-03  5.4414212E-03
  4.4860682E-03  3.4270510E-03  2.3680341E-03  1.4126810E-03  6.5450848E-04
  1.6773181E-04  2.0345199E-04  7.9389260E-04  1.7135255E-03  2.8723306E-03
  4.1568759E-03  5.4414212E-03  6.6002258E-03  7.5198589E-03  8.1102997E-03
  8.3137518E-03  8.1102997E-03  7.5198589E-03  6.6002258E-03  5.4414212E-03
  4.1568759E-03  2.8723306E-03  1.7135255E-03  7.9389260E-04  2.0345199E-04
  2.3179967E-04  9.0450852E-04  1.9522770E-03  3.2725425E-03  4.7360682E-03
  6.1995937E-03  7.5198589E-03  8.5676275E-03  9.2403367E-03  9.4721364E-03
  9.2403367E-03  8.5676275E-03  7.5198589E-03  6.1995937E-03  4.7360682E-03
  3.2725425E-03  1.9522770E-03  9.0450852E-04  2.3179967E-04  2.5000001E-04
  9.7552827E-04  2.1055650E-03  3.5294944E-03  5.1079323E-03  6.6863704E-03
  8.1102997E-03  9.2403367E-03  9.9658649E-03  1.0215865E-02  9.9658649E-03
  9.2403367E-03  8.1102997E-03  6.6863704E-03  5.1079323E-03  3.5294944E-03
  2.1055650E-03  9.7552827E-04  2.5000001E-04  2.5627142E-04  1.0000000E-03
  2.1583845E-03  3.6180341E-03  5.2360678E-03  6.8541020E-03  8.3137518E-03
  9.4721364E-03  1.0215865E-02  1.0472136E-02  1.0215865E-02  9.4721364E-03
  8.3137518E-03  6.8541020E-03  5.2360678E-03  3.6180341E-03  2.1583845E-03
  1.0000000E-03  2.5627142E-04  2.5000001E-04  9.7552827E-04  2.1055650E-03
  3.5294944E-03  5.1079323E-03  6.6863704E-03  8.1102997E-03  9.2403367E-03
  9.9658649E-03  1.0215865E-02  9.9658649E-03  9.2403367E-03  8.1102997E-03
  6.6863704E-03  5.1079323E-03  3.5294944E-03  2.1055650E-03  9.7552827E-04
  2.5000001E-04  2.3179967E-04  9.0450852E-04  1.9522770E-03  3.2725425E-03
  4.7360682E-03  6.1995937E-03  7.5198589E-03  8.5676275E-03  9.2403367E-03
  9.4721364E-03  9.2403367E-03  8.5676275E-03  7.5198589E-03  6.1995937E-03
  4.7360682E-03  3.2725425E-03  1.9522770E-03  9.0450852E-04  2.3179967E-04
  2.0345199E-04  7.9389260E-04  1.7135255E-03  2.8723306E-03  4.1568759E-03
  5.4414212E-03  6.6002258E-03  7.5198589E-03  8.1102997E-03  8.3137518E-03
  8.1102997E-03  7.5198589E-03  6.6002258E-03  5.4414212E-03  4.1568759E-03
  2.8723306E-03  1.7135255E-03  7.9389260E-04  2.0345199E-04  1.6773181E-04
  6.5450848E-04  1.4126810E-03  2.3680341E-03  3.4270510E-03  4.4860682E-03
  5.4414212E-03  6.1995937E-03  6.6863704E-03  6.8541020E-03  6.6863704E-03
  6.1995937E-03  5.4414212E-03  4.4860682E-03  3.4270510E-03  2.3680341E-03
  1.4126810E-03  6.5450848E-04  1.6773181E-04  1.2813571E-04  5.0000002E-04
  1.0791923E-03  1.8090170E-03  2.6180339E-03  3.4270510E-03  4.1568759E-03
  4.7360682E-03  5.1079323E-03  5.2360678E-03  5.1079323E-03  4.7360682E-03
  4.1568759E-03  3.4270510E-03  2.6180339E-03  1.8090170E-03  1.0791923E-03
  5.0000002E-04  1.2813571E-04  8.8539593E-05  3.4549151E-04  7.4570347E-04
  1.2500000E-03  1.8090170E-03  2.3680341E-03  2.8723306E-03  3.2725425E-03
  3.5294944E-03  3.6180341E-03  3.5294944E-03  3.2725425E-03  2.8723306E-03
  2.3680341E-03  1.8090170E-03  1.2500000E-03  7.4570347E-04  3.4549151E-04
  8.8539593E-05  5.2819425E-05  2.0610738E-04  4.4485895E-04  7.4570347E-04
  1.0791923E-03  1.4126810E-03  1.7135255E-03  1.9522770E-03  2.1055650E-03
  2.1583845E-03  2.1055650E-03  1.9522770E-03  1.7135255E-03  1.4126810E-03
  1.0791923E-03  7.4570347E-04  4.4485895E-04  2.0610738E-04  5.2819425E-05
  2.4471741E-05  9.5491501E-05  2.0610738E-04  3.4549151E-04  5.0000002E-04
  6.5450848E-04  7.9389260E-04  9.0450852E-04  9.7552827E-04  1.0000000E-03
  9.7552827E-04  9.0450852E-04  7.9389260E-04  6.5450848E-04  5.0000002E-04
  3.4549151E-04  2.0610738E-04  9.5491501E-05  2.4471741E-05  6.2714075E-06
  2.4471741E-05  5.2819425E-05  8.8539593E-05  1.2813571E-04  1.6773181E-04
  2.0345199E-04  2.3179967E-04  2.5000001E-04  2.5627142E-04  2.5000001E-04
  2.3179967E-04  2.0345199E-04  1.6773181E-04  1.2813571E-04  8.8539593E-05
  5.2819425E-05  2.4471741E-05  6.2714075E-06  8.6668724E-06  3.3819117E-05
  7.2994655E-05  1.2235870E-04  1.7707919E-04  2.3179967E-04  2.8116372E-04
  3.2033926E-04  3.4549151E-04  3.5415837E-04  3.4549151E-04  3.2033926E-04
  2.8116372E-04  2.3179967E-04  1.7707919E-04  1.2235870E-04  7.2994655E-05
  3.3819117E-05  8.6668724E-06  3.3819117E-05  1.3196601E-04  2.8483340E-04
  4.7745751E-04  6.9098303E-04  9.0450852E-04  1.0971326E-03  1.2500000E-03
  1.3481469E-03  1.3819661E-03  1.3481469E-03  1.2500000E-03  1.0971326E-03
  9.0450852E-04  6.9098303E-04  4.7745751E-04  2.8483340E-04  1.3196601E-04
  3.3819117E-05  7.2994655E-05  2.8483340E-04  6.1477994E-04  1.0305368E-03
  1.4914069E-03  1.9522770E-03  2.3680341E-03  2.6979805E-03  2.9098194E-03
  2.9828139E-03  2.9098194E-03  2.6979805E-03  2.3680341E-03  1.9522770E-03
  1.4914069E-03  1.0305368E-03  6.1477994E-04  2.8483340E-04  7.2994655E-05
  1.2235870E-04  4.7745751E-04  1.0305368E-03  1.7274575E-03  2.4999999E-03
  3.2725425E-03  3.9694631E-03  4.5225425E-03  4.8776413E-03  4.9999999E-03
  4.8776413E-03  4.5225425E-03  3.9694631E-03  3.2725425E-03  2.4999999E-03
  1.7274575E-03  1.0305368E-03  4.7745751E-04  1.2235870E-04  1.7707919E-04
  6.9098303E-04  1.4914069E-03  2.4999999E-03  3.6180341E-03  4.7360682E-03
  5.7446612E-03  6.5450850E-03  7.0589888E-03  7.2360681E-03  7.0589888E-03
  6.5450850E-03  5.7446612E-03  4.7360682E-03  3.6180341E-03  2.4999999E-03
  1.4914069E-03  6.9098303E-04  1.7707919E-04  2.3179967E-04  9.0450852E-04
  1.9522770E-03  3.2725425E-03  4.7360682E-03  6.1995937E-03  7.5198589E-03
  8.5676275E-03  9.2403367E-03  9.4721364E-03  9.2403367E-03  8.5676275E-03
  7.5198589E-03  6.1995937E-03  4.7360682E-03  3.2725425E-03  1.9522770E-03
  9.0450852E-04  2.3179967E-04  2.8116372E-04  1.0971326E-03  2.3680341E-03
  3.9694631E-03  5.7446612E-03  7.5198589E-03  9.1212876E-03  1.0392189E-02
  1.1208158E-02  1.1489322E-02  1.1208158E-02  1.0392189E-02  9.1212876E-03
  7.5198589E-03  5.7446612E-03  3.9694631E-03  2.3680341E-03  1.0971326E-03
  2.8116372E-04  3.2033926E-04  1.2500000E-03  2.6979805E-03  4.5225425E-03
  6.5450850E-03  8.5676275E-03  1.0392189E-02  1.1840170E-02  1.2769830E-02
  1.3090170E-02  1.2769830E-02  1.1840170E-02  1.0392189E-02  8.5676275E-03
  6.5450850E-03  4.5225425E-03  2.6979805E-03  1.2500000E-03  3.2033926E-04
  3.4549151E-04  1.3481469E-03  2.9098194E-03  4.8776413E-03  7.0589888E-03
  9.2403367E-03  1.1208158E-02  1.2769830E-02  1.3772486E-02  1.4117978E-02
  1.3772486E-02  1.2769830E-02  1.1208158E-02  9.2403367E-03  7.0589888E-03
  4.8776413E-03  2.9098194E-03  1.3481469E-03  3.4549151E-04  3.5415837E-04
  1.3819661E-03  2.9828139E-03  4.9999999E-03  7.2360681E-03  9.4721364E-03
  1.1489322E-02  1.3090170E-02  1.4117978E-02  1.4472136E-02  1.4117978E-02
  1.3090170E-02  1.1489322E-02  9.4721364E-03  7.2360681E-03  4.9999999E-03
  2.9828139E-03  1.3819661E-03  3.5415837E-04  3.4549151E-04  1.3481469E-03
  2.9098194E-03  4.8776413E-03  7.0589888E-03  9.2403367E-03  1.1208158E-02
  1.2769830E-02  1.3772486E-02  1.4117978E-02  1.3772486E-02  1.2769830E-02
  1.1208158E-02  9.2403367E-03  7.0589888E-03  4.8776413E-03  2.9098194E-03
  1.3481469E-03  3.4549151E-04  3.2033926E-04  1.2500000E-03  2.6979805E-03
  4.5225425E-03  6.5450850E-03  8.5676275E-03  1.0392189E-02  1.1840170E-02
  1.2769830E-02  1.3090170E-02  1.2769830E-02  1.1840170E-02  1.0392189E-02
  8.5676275E-03  6.5450850E-03  4.5225425E-03  2.6979805E-03  1.2500000E-03
  3.2033926E-04  2.8116372E-04  1.0971326E-03  2.3680341E-03  3.9694631E-03
  5.7446612E-03  7.5198589E-03  9.1212876E-03  1.0392189E-02  1.1208158E-02
  1.1489322E-02  1.1208158E-02  1.0392189E-02  9.1212876E-03  7.5198589E-03
  5.7446612E-03  3.9694631E-03  2.3680341E-03  1.0971326E-03  2.8116372E-04
  2.3179967E-04  9.0450852E-04  1.9522770E-03  3.2725425E-03  4.7360682E-03
  6.1995937E-03  7.5198589E-03  8.5676275E-03  9.2403367E-03  9.4721364E-03
  9.2403367E-03  8.5676275E-03  7.5198589E-03  6.1995937E-03  4.7360682E-03
  3.2725425E-03  1.9522770E-03  9.0450852E-04  2.3179967E-04  1.7707919E-04
  6.9098303E-04  1.4914069E-03  2.4999999E-03  3.6180341E-03  4.7360682E-03
  5.7446612E-03  6.5450850E-03  7.0589888E-03  7.2360681E-03  7.0589888E-03
  6.5450850E-03  5.7446612E-03  4.7360682E-03  3.6180341E-03  2.4999999E-03
  1.4914069E-03  6.9098303E-04  1.7707919E-04  1.2235870E-04  4.7745751E-04
  1.0305368E-03  1.7274575E-03  2.4999999E-03  3.2725425E-03  3.9694631E-03
  4.5225425E-03  4.8776413E-03  4.9999999E-03  4.8776413E-03  4.5225425E-03
  3.9694631E-03  3.2725425E-03  2.4999999E-03  1.7274575E-03  1.0305368E-03
  4.7745751E-04  1.2235870E-04  7.2994655E-05  2.8483340E-04  6.1477994E-04
  1.0305368E-03  1.4914069E-03  1.9522770E-03  2.3680341E-03  2.6979805E-03
  2.9098194E-03  2.9828139E-03  2.9098194E-03  2.6979805E-03  2.3680341E-03
  1.9522770E-03  1.4914069E-03  1.0305368E-03  6.1477994E-04  2.8483340E-04
  7.2994655E-05  3.3819117E-05  1.3196601E-04  2.8483340E-04  4.7745751E-04
  6.9098303E-04  9.0450852E-04  1.0971326E-03  1.2500000E-03  1.3481469E-03
  1.3819661E-03  1.3481469E-03  1.2500000E-03  1.0971326E-03  9.0450852E-04
  6.9098303E-04  4.7745751E-04  2.8483340E-04  1.3196601E-04  3.3819117E-05
  8.6668724E-06  3.3819117E-05  7.2994655E-05  1.2235870E-04  1.7707919E-04
  2.3179967E-04  2.8116372E-04  3.2033926E-04  3.4549151E-04  3.5415837E-04
  3.4549151E-04  3.2033926E-04  2.8116372E-04  2.3179967E-04  1.7707919E-04
  1.2235870E-04  7.2994655E-05  3.3819117E-05  8.6668724E-06  9.5818586E-06
  3.7389495E-05  8.0700906E-05  1.3527647E-04  1.9577393E-04  2.5627142E-04
  3.1084695E-04  3.5415837E-04  3.8196601E-04  3.9154786E-04  3.8196601E-04
  3.5415837E-04  3.1084695E-04  2.5627142E-04  1.9577393E-04  1.3527647E-04
  8.0700906E-05  3.7389495E-05  9.5818586E-06  3.7389495E-05  1.4589804E-04
  3.1490406E-04  5.2786403E-04  7.6393201E-04  1.0000000E-03  1.2129600E-03
  1.3819661E-03  1.4904746E-03  1.5278640E-03  1.4904746E-03  1.3819661E-03
  1.2129600E-03  1.0000000E-03  7.6393201E-04  5.2786403E-04  3.1490406E-04
  1.4589804E-04  3.7389495E-05  8.0700906E-05  3.1490406E-04  6.7968399E-04
  1.1393336E-03  1.6488590E-03  2.1583845E-03  2.6180339E-03  2.9828139E-03
  3.2170170E-03  3.2977180E-03  3.2170170E-03  2.9828139E-03  2.6180339E-03
  2.1583845E-03  1.6488590E-03  1.1393336E-03  6.7968399E-04  3.1490406E-04
  8.0700906E-05  1.3527647E-04  5.2786403E-04  1.1393336E-03  1.9098300E-03
  2.7639321E-03  3.6180341E-03  4.3885303E-03  4.9999999E-03  5.3925877E-03
  5.5278642E-03  5.3925877E-03  4.9999999E-03  4.3885303E-03  3.6180341E-03
  2.7639321E-03  1.9098300E-03  1.1393336E-03  5.2786403E-04  1.3527647E-04
  1.9577393E-04  7.6393201E-04  1.6488590E-03  2.7639321E-03  4.0000002E-03
  5.2360678E-03  6.3511408E-03  7.2360681E-03  7.8042261E-03  8.0000004E-03
  7.8042261E-03  7.2360681E-03  6.3511408E-03  5.2360678E-03  4.0000002E-03
  2.7639321E-03  1.6488590E-03  7.6393201E-04  1.9577393E-04  2.5627142E-04
  1.0000000E-03  2.1583845E-03  3.6180341E-03  5.2360678E-03  6.8541020E-03
  8.3137518E-03  9.4721364E-03  1.0215865E-02  1.0472136E-02  1.0215865E-02
  9.4721364E-03  8.3137518E-03  6.8541020E-03  5.2360678E-03  3.6180341E-03
  2.1583845E-03  1.0000000E-03  2.5627142E-04  3.1084695E-04  1.2129600E-03
  2.6180339E-03  4.3885303E-03  6.3511408E-03  8.3137518E-03  1.0084248E-02
  1.1489322E-02  1.2391435E-02  1.2702282E-02  1.2391435E-02  1.1489322E-02
  1.0084248E-02  8.3137518E-03  6.3511408E-03  4.3885303E-03  2.6180339E-03
  1.2129600E-03  3.1084695E-04  3.5415837E-04  1.3819661E-03  2.9828139E-03
  4.9999999E-03  7.2360681E-03  9.4721364E-03  1.1489322E-02  1.3090170E-02
  1.4117978E-02  1.4472136E-02  1.4117978E-02  1.3090170E-02  1.1489322E-02
  9.4721364E-03  7.2360681E-03  4.9999999E-03  2.9828139E-03  1.3819661E-03
  3.5415837E-04  3.8196601E-04  1.4904746E-03  3.2170170E-03  5.3925877E-03
  7.8042261E-03  1.0215865E-02  1.2391435E-02  1.4117978E-02  1.5226486E-02
  1.5608452E-02  1.5226486E-02  1.4117978E-02  1.2391435E-02  1.0215865E-02
  7.8042261E-03  5.3925877E-03  3.2170170E-03  1.4904746E-03  3.8196601E-04
  3.9154786E-04  1.5278640E-03  3.2977180E-03  5.5278642E-03  8.0000004E-03
  1.0472136E-02  1.2702282E-02  1.4472136E-02  1.5608452E-02  1.6000001E-02
  1.5608452E-02  1.4472136E-02  1.2702282E-02  1.0472136E-02  8.0000004E-03
  5.5278642E-03  3.2977180E-03  1.5278640E-03  3.9154786E-04  3.8196601E-04
  1.4904746E-03  3.2170170E-03  5.3925877E-03  7.8042261E-03  1.0215865E-02
  1.2391435E-02  1.4117978E-02  1.5226486E-02  1.5608452E-02  1.5226486E-02
  1.4117978E-02  1.2391435E-02  1.0215865E-02  7.8042261E-03  5.3925877E-03
  3.2170170E-03  1.4904746E-03  3.8196601E-04  3.5415837E-04  1.3819661E-03
  2.9828139E-03  4.9999999E-03  7.2360681E-03  9.4721364E-03  1.1489322E-02
  1.3090170E-02  1.4117978E-02  1.4472136E-02  1.4117978E-02  1.3090170E-02
  1.1489322E-02  9.4721364E-03  7.2360681E-03  4.9999999E-03  2.9828139E-03
  1.3819661E-03  3.5415837E-04  3.1084695E-04  1.2129600E-03  2.6180339E-03
  4.3885303E-03  6.3511408E-03  8.3137518E-03  1.0084248E-02  1.1489322E-02
  1.2391435E-02  1.2702282E-02  1.2391435E-02  1.1489322E-02  1.0084248E-02
  8.3137518E-03  6.3511408E-03  4.3885303E-03  2.6180339E-03  1.2129600E-03
  3.1084695E-04  2.5627142E-04  1.0000000E-03  2.1583845E-03  3.6180341E-03
  5.2360678E-03  6.8541020E-03  8.3137518E-03  9.4721364E-03  1.0215865E-02
  1.0472136E-02  1.0215865E-02  9.4721364E-03  8.3137518E-03  6.8541020E-03
  5.2360678E-03  3.6180341E-03  2.1583845E-03  1.0000000E-03  2.5627142E-04
  1.9577393E-04  7.6393201E-04  1.6488590E-03  2.7639321E-03  4.0000002E-03
  5.2360678E-03  6.3511408E-03  7.2360681E-03  7.8042261E-03  8.0000004E-03
  7.8042261E-03  7.2360681E-03  6.3511408E-03  5.2360678E-03  4.0000002E-03
  2.7639321E-03  1.6488590E-03  7.6393201E-04  1.9577393E-04  1.3527647E-04
  5.2786403E-04  1.1393336E-03  1.9098300E-03  2.7639321E-03  3.6180341E-03
  4.3885303E-03  4.9999999E-03  5.3925877E-03  5.5278642E-03  5.3925877E-03
  4.9999999E-03  4.3885303E-03  3.6180341E-03  2.7639321E-03  1.9098300E-03
  1.1393336E-03  5.2786403E-04  1.3527647E-04  8.0700906E-05  3.1490406E-04
  6.7968399E-04  1.1393336E-03  1.6488590E-03  2.1583845E-03  2.6180339E-03
  2.9828139E-03  3.2170170E-03  3.2977180E-03  3.2170170E-03  2.9828139E-03
  2.6180339E-03  2.1583845E-03  1.6488590E-03  1.1393336E-03  6.7968399E-04
  3.1490406E-04  8.0700906E-05  3.7389495E-05  1.4589804E-04  3.1490406E-04
  5.2786403E-04  7.6393201E-04  1.0000000E-03  1.2129600E-03  1.3819661E-03
  1.4904746E-03  1.5278640E-03  1.4904746E-03  1.3819661E-03  1.2129600E-03
  1.0000000E-03  7.6393201E-04  5.2786403E-04  3.1490406E-04  1.4589804E-04
  3.7389495E-05  9.5818586E-06  3.7389495E-05  8.0700906E-05  1.3527647E-04
  1.9577393E-04  2.5627142E-04  3.1084695E-04  3.5415837E-04  3.8196601E-04
  3.9154786E-04  3.8196601E-04  3.5415837E-04  3.1084695E-04  2.5627142E-04
  1.9577393E-04  1.3527647E-04  8.0700906E-05  3.7389495E-05  9.5818586E-06
  8.6668724E-06  3.3819117E-05  7.2994655E-05  1.2235870E-04  1.7707919E-04
  2.3179967E-04  2.8116372E-04  3.2033926E-04  3.4549151E-04  3.5415837E-04
  3.4549151E-04  3.2033926E-04  2.8116372E-04  2.3179967E-04  1.7707919E-04
  1.2235870E-04  7.2994655E-05  3.3819117E-05  8.6668724E-06  3.3819117E-05
  1.3196601E-04  2.8483340E-04  4.7745751E-04  6.9098303E-04  9.0450852E-04
  1.0971326E-03  1.2500000E-03  1.3481469E-03  1.3819661E-03  1.3481469E-03
  1.2500000E-03  1.0971326E-03  9.0450852E-04  6.9098303E-04  4.7745751E-04
  2.8483340E-04  1.3196601E-04  3.3819117E-05  7.2994655E-05  2.8483340E-04
  6.1477994E-04  1.0305368E-03  1.4914069E-03  1.9522770E-03  2.3680341E-03
  2.6979805E-03  2.9098194E-03  2.9828139E-03  2.9098194E-03  2.6979805E-03
  2.3680341E-03  1.9522770E-03  1.4914069E-03  1.0305368E-03  6.1477994E-04
  2.8483340E-04  7.2994655E-05  1.2235870E-04  4.7745751E-04  1.0305368E-03
  1.7274575E-03  2.4999999E-03  3.2725425E-03  3.9694631E-03  4.5225425E-03
  4.8776413E-03  4.9999999E-03  4.8776413E-03  4.5225425E-03  3.9694631E-03
  3.2725425E-03  2.4999999E-03  1.7274575E-03  1.0305368E-03  4.7745751E-04
  1.2235870E-04  1.7707919E-04  6.9098303E-04  1.4914069E-03  2.4999999E-03