<VTKFile type="RectilinearGrid" version="0.1" format="ascii">
 <RectilinearGrid WholeExtent="1 5 1 76 1 1">
  <Piece Extent="1 5 1 76 1 1">
   <Coordinates>
    <DataArray type="Float32" Name="X_COORDINATES" NumberOfComponents="1" format="ascii">
  0.0000000E+00   150.0000       300.0000       450.0000       600.0000    
    </DataArray>
    <DataArray type="Float32" Name="Y_COORDINATES" NumberOfComponents="1" format="ascii">
  -10.00000      0.0000000E+00   1.250000       2.500000       3.750000    
   5.000000       7.000000       9.000000       11.00000       13.00000    
   14.00000       15.00000       16.00000       17.00000       17.50000    
   18.00000       18.50000       19.00000       19.50000       20.00000    
   20.50000       21.00000       21.50000       22.00000       22.50000    
   23.00000       23.50000       24.00000       24.50000       25.00000    
   27.40000       29.80000       32.20000       34.60000       37.00000    
   38.00000       39.00000       40.00000       41.00000       42.00000    
   43.00000       44.00000       45.00000       46.00000       47.00000    
   48.00000       49.00000       50.00000       52.50000       55.00000    
   57.50000       60.00000       62.50000       65.00000       67.50000    
   70.00000       72.50000       75.00000       78.75000       82.50000    
   86.25000       90.00000       104.2857       118.5714       132.8571    
   147.1429       161.4286       175.7143       190.0000       206.6667    
   223.3333       240.0000       256.6667       273.3333       290.0000    
   300.0000
    </DataArray>
    <DataArray type="Float32" Name="Z_COORDINATES" NumberOfComponents="1" format="ascii">
  0.0000000E+00
    </DataArray>
   </Coordinates>
   <PointData>
        <DataArray type="Float32" Name="Gamma_bandedge[eV]" NumberOfComponents="1" format="ascii">
  0.0000000E+00  0.0000000E+00  0.0000000E+00  0.0000000E+00  0.0000000E+00
  0.3000000      0.3000000      0.3000000      0.3000000      0.3000000    
  0.5592026      0.5592026      0.5592026      0.5592026      0.5592026    
  0.5184051      0.5184051      0.5184051      0.5184051      0.5184051    
  0.4776076      0.4776076      0.4776076      0.4776076      0.4776076    
  0.5763258      0.5763258      0.5763258      0.5763258      0.5763258    
  0.6455820      0.6455820      0.6455820      0.6455820      0.6455820    
  0.5753225      0.5753225      0.5753225      0.5753225      0.5753225    
  0.5050631      0.5050631      0.5050631      0.5050631      0.5050631    
  0.8306224      0.8306224      0.8306224      0.8306224      0.8306224    
   1.184509       1.184509       1.184509       1.184509       1.184509    
  0.6072417      0.6072417      0.6072417      0.6072417      0.6072417    
  3.9269432E-02  3.9269432E-02  3.9269432E-02  3.9269432E-02  3.9269432E-02
  0.1461471      0.1461471      0.1461471      0.1461471      0.1461471    
  0.2680978      0.2680978      0.2680978      0.2680978      0.2680978    
  0.2505330      0.2505330      0.2505330      0.2505330      0.2505330    
  0.2329681      0.2329681      0.2329681      0.2329681      0.2329681    
  0.2154033      0.2154033      0.2154033      0.2154033      0.2154033    
  0.2002862      0.2002862      0.2002862      0.2002862      0.2002862    
  0.1900646      0.1900646      0.1900646      0.1900646      0.1900646    
  0.1847385      0.1847385      0.1847385      0.1847385      0.1847385    
  0.1843079      0.1843079      0.1843079      0.1843079      0.1843079    
  0.1863251      0.1863251      0.1863251      0.1863251      0.1863251    
  0.1883423      0.1883423      0.1883423      0.1883423      0.1883423    
  0.1903595      0.1903595      0.1903595      0.1903595      0.1903595    
  0.1923767      0.1923767      0.1923767      0.1923767      0.1923767    
  0.1943938      0.1943938      0.1943938      0.1943938      0.1943938    
  0.1964110      0.1964110      0.1964110      0.1964110      0.1964110    
  0.1984282      0.1984282      0.1984282      0.1984282      0.1984282    
  0.2004454      0.2004454      0.2004454      0.2004454      0.2004454    
  0.2101279      0.2101279      0.2101279      0.2101279      0.2101279    
  0.2198104      0.2198104      0.2198104      0.2198104      0.2198104    
  0.2294928      0.2294928      0.2294928      0.2294928      0.2294928    
  0.2391753      0.2391753      0.2391753      0.2391753      0.2391753    
  0.1093422      0.1093422      0.1093422      0.1093422      0.1093422    
 -2.6714105E-02 -2.6714105E-02 -2.6714105E-02 -2.6714105E-02 -2.6714105E-02
 -2.3736019E-02 -2.3736019E-02 -2.3736019E-02 -2.3736019E-02 -2.3736019E-02
 -2.1161010E-02 -2.1161010E-02 -2.1161010E-02 -2.1161010E-02 -2.1161010E-02
 -1.8925304E-02 -1.8925304E-02 -1.8925304E-02 -1.8925304E-02 -1.8925304E-02
 -1.6976571E-02 -1.6976571E-02 -1.6976571E-02 -1.6976571E-02 -1.6976571E-02
 -1.5271652E-02 -1.5271652E-02 -1.5271652E-02 -1.5271652E-02 -1.5271652E-02
 -1.3774759E-02 -1.3774759E-02 -1.3774759E-02 -1.3774759E-02 -1.3774759E-02
 -1.2456071E-02 -1.2456071E-02 -1.2456071E-02 -1.2456071E-02 -1.2456071E-02
 -1.1290619E-02 -1.1290619E-02 -1.1290619E-02 -1.1290619E-02 -1.1290619E-02
 -1.0257413E-02 -1.0257413E-02 -1.0257413E-02 -1.0257413E-02 -1.0257413E-02
 -9.3387216E-03 -9.3387216E-03 -9.3387216E-03 -9.3387216E-03 -9.3387216E-03
 -8.5195135E-03 -8.5195135E-03 -8.5195135E-03 -8.5195135E-03 -8.5195135E-03
 -7.7869911E-03 -7.7869911E-03 -7.7869911E-03 -7.7869911E-03 -7.7869911E-03
 -6.2870961E-03 -6.2870961E-03 -6.2870961E-03 -6.2870961E-03 -6.2870961E-03
 -5.1307003E-03 -5.1307003E-03 -5.1307003E-03 -5.1307003E-03 -5.1307003E-03
 -4.2275642E-03 -4.2275642E-03 -4.2275642E-03 -4.2275642E-03 -4.2275642E-03
 -3.5138840E-03 -3.5138840E-03 -3.5138840E-03 -3.5138840E-03 -3.5138840E-03
 -2.9438033E-03 -2.9438033E-03 -2.9438033E-03 -2.9438033E-03 -2.9438033E-03
 -2.4838697E-03 -2.4838697E-03 -2.4838697E-03 -2.4838697E-03 -2.4838697E-03
 -2.1093418E-03 -2.1093418E-03 -2.1093418E-03 -2.1093418E-03 -2.1093418E-03
 -1.8016894E-03 -1.8016894E-03 -1.8016894E-03 -1.8016894E-03 -1.8016894E-03
 -1.5468687E-03 -1.5468687E-03 -1.5468687E-03 -1.5468687E-03 -1.5468687E-03
 -1.3341202E-03 -1.3341202E-03 -1.3341202E-03 -1.3341202E-03 -1.3341202E-03
 -1.0782650E-03 -1.0782650E-03 -1.0782650E-03 -1.0782650E-03 -1.0782650E-03
 -8.7772578E-04 -8.7772578E-04 -8.7772578E-04 -8.7772578E-04 -8.7772578E-04
 -7.1797636E-04 -7.1797636E-04 -7.1797636E-04 -7.1797636E-04 -7.1797636E-04
 -5.8858405E-04 -5.8858405E-04 -5.8858405E-04 -5.8858405E-04 -5.8858405E-04
 -3.0391230E-04 -3.0391230E-04 -3.0391230E-04 -3.0391230E-04 -3.0391230E-04
 -1.5109904E-04 -1.5109904E-04 -1.5109904E-04 -1.5109904E-04 -1.5109904E-04
 -5.7501129E-05 -5.7501129E-05 -5.7501129E-05 -5.7501129E-05 -5.7501129E-05
  5.9937402E-06  5.9937402E-06  5.9937402E-06  5.9937402E-06  5.9937402E-06
  5.2170537E-05  5.2170537E-05  5.2170537E-05  5.2170537E-05  5.2170537E-05
  8.7253415E-05  8.7253415E-05  8.7253415E-05  8.7253415E-05  8.7253415E-05
  1.1458300E-04  1.1458300E-04  1.1458300E-04  1.1458300E-04  1.1458300E-04
  1.3912510E-04  1.3912510E-04  1.3912510E-04  1.3912510E-04  1.3912510E-04
  1.5760030E-04  1.5760030E-04  1.5760030E-04  1.5760030E-04  1.5760030E-04
  1.7112018E-04  1.7112018E-04  1.7112018E-04  1.7112018E-04  1.7112018E-04
  1.8037263E-04  1.8037263E-04  1.8037263E-04  1.8037263E-04  1.8037263E-04
  1.8577477E-04  1.8577477E-04  1.8577477E-04  1.8577477E-04  1.8577477E-04
  9.3775867E-05  9.3775867E-05  9.3775867E-05  9.3775867E-05  9.3775867E-05
  0.0000000E+00  0.0000000E+00  0.0000000E+00  0.0000000E+00  0.0000000E+00
        </DataArray>
        <DataArray type="Float32" Name="hh_bandedge[eV]" NumberOfComponents="1" format="ascii">
  0.0000000E+00  0.0000000E+00  0.0000000E+00  0.0000000E+00  0.0000000E+00
 -0.4594974     -0.4594974     -0.4594974     -0.4594974     -0.4594974    
 -0.9597922     -0.9597922     -0.9597922     -0.9597922     -0.9597922    
  -1.000590      -1.000590      -1.000590      -1.000590      -1.000590    
  -1.041387      -1.041387      -1.041387      -1.041387      -1.041387    
  -1.163678      -1.163678      -1.163678      -1.163678      -1.163678    
  -1.315431      -1.315431      -1.315431      -1.315431      -1.315431    
  -1.385690      -1.385690      -1.385690      -1.385690      -1.385690    
  -1.455950      -1.455950      -1.455950      -1.455950      -1.455950    
  -1.699382      -1.699382      -1.699382      -1.699382      -1.699382    
  -1.914488      -1.914488      -1.914488      -1.914488      -1.914488    
  -1.701754      -1.701754      -1.701754      -1.701754      -1.701754    
  -1.479725      -1.479725      -1.479725      -1.479725      -1.479725    
  -1.593857      -1.593857      -1.593857      -1.593857      -1.593857    
  -1.692915      -1.692915      -1.692915      -1.692915      -1.692915    
  -1.710480      -1.710480      -1.710480      -1.710480      -1.710480    
  -1.728045      -1.728045      -1.728045      -1.728045      -1.728045    
  -1.745609      -1.745609      -1.745609      -1.745609      -1.745609    
  -1.760726      -1.760726      -1.760726      -1.760726      -1.760726    
  -1.770948      -1.770948      -1.770948      -1.770948      -1.770948    
  -1.776274      -1.776274      -1.776274      -1.776274      -1.776274    
  -1.776705      -1.776705      -1.776705      -1.776705      -1.776705    
  -1.774688      -1.774688      -1.774688      -1.774688      -1.774688    
  -1.772670      -1.772670      -1.772670      -1.772670      -1.772670    
  -1.770653      -1.770653      -1.770653      -1.770653      -1.770653    
  -1.768636      -1.768636      -1.768636      -1.768636      -1.768636    
  -1.766619      -1.766619      -1.766619      -1.766619      -1.766619    
  -1.764602      -1.764602      -1.764602      -1.764602      -1.764602    
  -1.762584      -1.762584      -1.762584      -1.762584      -1.762584    
  -1.760567      -1.760567      -1.760567      -1.760567      -1.760567    
  -1.750885      -1.750885      -1.750885      -1.750885      -1.750885    
  -1.741202      -1.741202      -1.741202      -1.741202      -1.741202    
  -1.731520      -1.731520      -1.731520      -1.731520      -1.731520    
  -1.721837      -1.721837      -1.721837      -1.721837      -1.721837    
  -1.630661      -1.630661      -1.630661      -1.630661      -1.630661    
  -1.545709      -1.545709      -1.545709      -1.545709      -1.545709    
  -1.542731      -1.542731      -1.542731      -1.542731      -1.542731    
  -1.540156      -1.540156      -1.540156      -1.540156      -1.540156    
  -1.537920      -1.537920      -1.537920      -1.537920      -1.537920    
  -1.535971      -1.535971      -1.535971      -1.535971      -1.535971    
  -1.534266      -1.534266      -1.534266      -1.534266      -1.534266    
  -1.532769      -1.532769      -1.532769      -1.532769      -1.532769    
  -1.531451      -1.531451      -1.531451      -1.531451      -1.531451    
  -1.530285      -1.530285      -1.530285      -1.530285      -1.530285    
  -1.529252      -1.529252      -1.529252      -1.529252      -1.529252    
  -1.528333      -1.528333      -1.528333      -1.528333      -1.528333    
  -1.527514      -1.527514      -1.527514      -1.527514      -1.527514    
  -1.526782      -1.526782      -1.526782      -1.526782      -1.526782    
  -1.525282      -1.525282      -1.525282      -1.525282      -1.525282    
  -1.524125      -1.524125      -1.524125      -1.524125      -1.524125    
  -1.523222      -1.523222      -1.523222      -1.523222      -1.523222    
  -1.522509      -1.522509      -1.522509      -1.522509      -1.522509    
  -1.521939      -1.521939      -1.521939      -1.521939      -1.521939    
  -1.521479      -1.521479      -1.521479      -1.521479      -1.521479    
  -1.521104      -1.521104      -1.521104      -1.521104      -1.521104    
  -1.520796      -1.520796      -1.520796      -1.520796      -1.520796    
  -1.520542      -1.520542      -1.520542      -1.520542      -1.520542    
  -1.520329      -1.520329      -1.520329      -1.520329      -1.520329    
  -1.520073      -1.520073      -1.520073      -1.520073      -1.520073    
  -1.519872      -1.519872      -1.519872      -1.519872      -1.519872    
  -1.519713      -1.519713      -1.519713      -1.519713      -1.519713    
  -1.519583      -1.519583      -1.519583      -1.519583      -1.519583    
  -1.519299      -1.519299      -1.519299      -1.519299      -1.519299    
  -1.519146      -1.519146      -1.519146      -1.519146      -1.519146    
  -1.519052      -1.519052      -1.519052      -1.519052      -1.519052    
  -1.518989      -1.518989      -1.518989      -1.518989      -1.518989    
  -1.518943      -1.518943      -1.518943      -1.518943      -1.518943    
  -1.518907      -1.518907      -1.518907      -1.518907      -1.518907    
  -1.518880      -1.518880      -1.518880      -1.518880      -1.518880    
  -1.518856      -1.518856      -1.518856      -1.518856      -1.518856    
  -1.518837      -1.518837      -1.518837      -1.518837      -1.518837    
  -1.518824      -1.518824      -1.518824      -1.518824      -1.518824    
  -1.518814      -1.518814      -1.518814      -1.518814      -1.518814    
  -1.518809      -1.518809      -1.518809      -1.518809      -1.518809    
 -0.7594036     -0.7594036     -0.7594036     -0.7594036     -0.7594036    
  0.0000000E+00  0.0000000E+00  0.0000000E+00  0.0000000E+00  0.0000000E+00
        </DataArray>
        <DataArray type="Float32" Name="lh_bandedge[eV]" NumberOfComponents="1" format="ascii">
  0.0000000E+00  0.0000000E+00  0.0000000E+00  0.0000000E+00  0.0000000E+00
 -0.4594974     -0.4594974     -0.4594974     -0.4594974     -0.4594974    
 -0.9597922     -0.9597922     -0.9597922     -0.9597922     -0.9597922    
  -1.000590      -1.000590      -1.000590      -1.000590      -1.000590    
  -1.041387      -1.041387      -1.041387      -1.041387      -1.041387    
  -1.163678      -1.163678      -1.163678      -1.163678      -1.163678    
  -1.315431      -1.315431      -1.315431      -1.315431      -1.315431    
  -1.385690      -1.385690      -1.385690      -1.385690      -1.385690    
  -1.455950      -1.455950      -1.455950      -1.455950      -1.455950    
  -1.699382      -1.699382      -1.699382      -1.699382      -1.699382    
  -1.914488      -1.914488      -1.914488      -1.914488      -1.914488    
  -1.701754      -1.701754      -1.701754      -1.701754      -1.701754    
  -1.479725      -1.479725      -1.479725      -1.479725      -1.479725    
  -1.593857      -1.593857      -1.593857      -1.593857      -1.593857    
  -1.692915      -1.692915      -1.692915      -1.692915      -1.692915    
  -1.710480      -1.710480      -1.710480      -1.710480      -1.710480    
  -1.728045      -1.728045      -1.728045      -1.728045      -1.728045    
  -1.745609      -1.745609      -1.745609      -1.745609      -1.745609    
  -1.760726      -1.760726      -1.760726      -1.760726      -1.760726    
  -1.770948      -1.770948      -1.770948      -1.770948      -1.770948    
  -1.776274      -1.776274      -1.776274      -1.776274      -1.776274    
  -1.776705      -1.776705      -1.776705      -1.776705      -1.776705    
  -1.774688      -1.774688      -1.774688      -1.774688      -1.774688    
  -1.772670      -1.772670      -1.772670      -1.772670      -1.772670    
  -1.770653      -1.770653      -1.770653      -1.770653      -1.770653    
  -1.768636      -1.768636      -1.768636      -1.768636      -1.768636    
  -1.766619      -1.766619      -1.766619      -1.766619      -1.766619    
  -1.764602      -1.764602      -1.764602      -1.764602      -1.764602    
  -1.762584      -1.762584      -1.762584      -1.762584      -1.762584    
  -1.760567      -1.760567      -1.760567      -1.760567      -1.760567    
  -1.750885      -1.750885      -1.750885      -1.750885      -1.750885    
  -1.741202      -1.741202      -1.741202      -1.741202      -1.741202    
  -1.731520      -1.731520      -1.731520      -1.731520      -1.731520    
  -1.721837      -1.721837      -1.721837      -1.721837      -1.721837    
  -1.630661      -1.630661      -1.630661      -1.630661      -1.630661    
  -1.545709      -1.545709      -1.545709      -1.545709      -1.545709    
  -1.542731      -1.542731      -1.542731      -1.542731      -1.542731    
  -1.540156      -1.540156      -1.540156      -1.540156      -1.540156    
  -1.537920      -1.537920      -1.537920      -1.537920      -1.537920    
  -1.535971      -1.535971      -1.535971      -1.535971      -1.535971    
  -1.534266      -1.534266      -1.534266      -1.534266      -1.534266    
  -1.532769      -1.532769      -1.532769      -1.532769      -1.532769    
  -1.531451      -1.531451      -1.531451      -1.531451      -1.531451    
  -1.530285      -1.530285      -1.530285      -1.530285      -1.530285    
  -1.529252      -1.529252      -1.529252      -1.529252      -1.529252    
  -1.528333      -1.528333      -1.528333      -1.528333      -1.528333    
  -1.527514      -1.527514      -1.527514      -1.527514      -1.527514    
  -1.526782      -1.526782      -1.526782      -1.526782      -1.526782    
  -1.525282      -1.525282      -1.525282      -1.525282      -1.525282    
  -1.524125      -1.524125      -1.524125      -1.524125      -1.524125    
  -1.523222      -1.523222      -1.523222      -1.523222      -1.523222    
  -1.522509      -1.522509      -1.522509      -1.522509      -1.522509    
  -1.521939      -1.521939      -1.521939      -1.521939      -1.521939    
  -1.521479      -1.521479      -1.521479      -1.521479      -1.521479    
  -1.521104      -1.521104      -1.521104      -1.521104      -1.521104    
  -1.520796      -1.520796      -1.520796      -1.520796      -1.520796    
  -1.520542      -1.520542      -1.520542      -1.520542      -1.520542    
  -1.520329      -1.520329      -1.520329      -1.520329      -1.520329    
  -1.520073      -1.520073      -1.520073      -1.520073      -1.520073    
  -1.519872      -1.519872      -1.519872      -1.519872      -1.519872    
  -1.519713      -1.519713      -1.519713      -1.519713      -1.519713    
  -1.519583      -1.519583      -1.519583      -1.519583      -1.519583    
  -1.519299      -1.519299      -1.519299      -1.519299      -1.519299    
  -1.519146      -1.519146      -1.519146      -1.519146      -1.519146    
  -1.519052      -1.519052      -1.519052      -1.519052      -1.519052    
  -1.518989      -1.518989      -1.518989      -1.518989      -1.518989    
  -1.518943      -1.518943      -1.518943      -1.518943      -1.518943    
  -1.518907      -1.518907      -1.518907      -1.518907      -1.518907    
  -1.518880      -1.518880      -1.518880      -1.518880      -1.518880    
  -1.518856      -1.518856      -1.518856      -1.518856      -1.518856    
  -1.518837      -1.518837      -1.518837      -1.518837      -1.518837    
  -1.518824      -1.518824      -1.518824      -1.518824      -1.518824    
  -1.518814      -1.518814      -1.518814      -1.518814      -1.518814    
  -1.518809      -1.518809      -1.518809      -1.518809      -1.518809    
 -0.7594036     -0.7594036     -0.7594036     -0.7594036     -0.7594036    
  0.0000000E+00  0.0000000E+00  0.0000000E+00  0.0000000E+00  0.0000000E+00
        </DataArray>
        <DataArray type="Float32" Name="so_bandedge[eV]" NumberOfComponents="1" format="ascii">
  0.0000000E+00  0.0000000E+00  0.0000000E+00  0.0000000E+00  0.0000000E+00
 -0.6299974     -0.6299974     -0.6299974     -0.6299974     -0.6299974    
  -1.300792      -1.300792      -1.300792      -1.300792      -1.300792    
  -1.341590      -1.341590      -1.341590      -1.341590      -1.341590    
  -1.382387      -1.382387      -1.382387      -1.382387      -1.382387    
  -1.494918      -1.494918      -1.494918      -1.494918      -1.494918    
  -1.636911      -1.636911      -1.636911      -1.636911      -1.636911    
  -1.707170      -1.707170      -1.707170      -1.707170      -1.707170    
  -1.777429      -1.777429      -1.777429      -1.777429      -1.777429    
  -2.000122      -2.000122      -2.000122      -2.000122      -2.000122    
  -2.194488      -2.194488      -2.194488      -2.194488      -2.194488    
  -2.012254      -2.012254      -2.012254      -2.012254      -2.012254    
  -1.820725      -1.820725      -1.820725      -1.820725      -1.820725    
  -1.925097      -1.925097      -1.925097      -1.925097      -1.925097    
  -2.014395      -2.014395      -2.014395      -2.014395      -2.014395    
  -2.031960      -2.031960      -2.031960      -2.031960      -2.031960    
  -2.049525      -2.049525      -2.049525      -2.049525      -2.049525    
  -2.067089      -2.067089      -2.067089      -2.067089      -2.067089    
  -2.082206      -2.082206      -2.082206      -2.082206      -2.082206    
  -2.092428      -2.092428      -2.092428      -2.092428      -2.092428    
  -2.097754      -2.097754      -2.097754      -2.097754      -2.097754    
  -2.098185      -2.098185      -2.098185      -2.098185      -2.098185    
  -2.096168      -2.096168      -2.096168      -2.096168      -2.096168    
  -2.094150      -2.094150      -2.094150      -2.094150      -2.094150    
  -2.092133      -2.092133      -2.092133      -2.092133      -2.092133    
  -2.090116      -2.090116      -2.090116      -2.090116      -2.090116    
  -2.088099      -2.088099      -2.088099      -2.088099      -2.088099    
  -2.086082      -2.086082      -2.086082      -2.086082      -2.086082    
  -2.084064      -2.084064      -2.084064      -2.084064      -2.084064    
  -2.082047      -2.082047      -2.082047      -2.082047      -2.082047    
  -2.072365      -2.072365      -2.072365      -2.072365      -2.072365    
  -2.062682      -2.062682      -2.062682      -2.062682      -2.062682    
  -2.053000      -2.053000      -2.053000      -2.053000      -2.053000    
  -2.043317      -2.043317      -2.043317      -2.043317      -2.043317    
  -1.961902      -1.961902      -1.961902      -1.961902      -1.961902    
  -1.886709      -1.886709      -1.886709      -1.886709      -1.886709    
  -1.883731      -1.883731      -1.883731      -1.883731      -1.883731    
  -1.881156      -1.881156      -1.881156      -1.881156      -1.881156    
  -1.878920      -1.878920      -1.878920      -1.878920      -1.878920    
  -1.876971      -1.876971      -1.876971      -1.876971      -1.876971    
  -1.875266      -1.875266      -1.875266      -1.875266      -1.875266    
  -1.873770      -1.873770      -1.873770      -1.873770      -1.873770    
  -1.872451      -1.872451      -1.872451      -1.872451      -1.872451    
  -1.871285      -1.871285      -1.871285      -1.871285      -1.871285    
  -1.870252      -1.870252      -1.870252      -1.870252      -1.870252    
  -1.869334      -1.869334      -1.869334      -1.869334      -1.869334    
  -1.868514      -1.868514      -1.868514      -1.868514      -1.868514    
  -1.867782      -1.867782      -1.867782      -1.867782      -1.867782    
  -1.866282      -1.866282      -1.866282      -1.866282      -1.866282    
  -1.865125      -1.865125      -1.865125      -1.865125      -1.865125    
  -1.864222      -1.864222      -1.864222      -1.864222      -1.864222    
  -1.863509      -1.863509      -1.863509      -1.863509      -1.863509    
  -1.862939      -1.862939      -1.862939      -1.862939      -1.862939    
  -1.862479      -1.862479      -1.862479      -1.862479      -1.862479    
  -1.862104      -1.862104      -1.862104      -1.862104      -1.862104    
  -1.861796      -1.861796      -1.861796      -1.861796      -1.861796    
  -1.861542      -1.861542      -1.861542      -1.861542      -1.861542    
  -1.861329      -1.861329      -1.861329      -1.861329      -1.861329    
  -1.861073      -1.861073      -1.861073      -1.861073      -1.861073    
  -1.860873      -1.860873      -1.860873      -1.860873      -1.860873    
  -1.860713      -1.860713      -1.860713      -1.860713      -1.860713    
  -1.860583      -1.860583      -1.860583      -1.860583      -1.860583    
  -1.860299      -1.860299      -1.860299      -1.860299      -1.860299    
  -1.860146      -1.860146      -1.860146      -1.860146      -1.860146    
  -1.860052      -1.860052      -1.860052      -1.860052      -1.860052    
  -1.859989      -1.859989      -1.859989      -1.859989      -1.859989    
  -1.859943      -1.859943      -1.859943      -1.859943      -1.859943    
  -1.859908      -1.859908      -1.859908      -1.859908      -1.859908    
  -1.859880      -1.859880      -1.859880      -1.859880      -1.859880    
  -1.859856      -1.859856      -1.859856      -1.859856      -1.859856    
  -1.859837      -1.859837      -1.859837      -1.859837      -1.859837    
  -1.859824      -1.859824      -1.859824      -1.859824      -1.859824    
  -1.859814      -1.859814      -1.859814      -1.859814      -1.859814    
  -1.859809      -1.859809      -1.859809      -1.859809      -1.859809    
 -0.9299036     -0.9299036     -0.9299036     -0.9299036     -0.9299036    
  0.0000000E+00  0.0000000E+00  0.0000000E+00  0.0000000E+00  0.0000000E+00
        </DataArray>
        <DataArray type="Float32" Name="FermiLevel_el[eV]" NumberOfComponents="1" format="ascii">
  0.0000000E+00  0.0000000E+00  0.0000000E+00  0.0000000E+00  0.0000000E+00
  0.0000000E+00  0.0000000E+00  0.0000000E+00  0.0000000E+00  0.0000000E+00
  0.0000000E+00  0.0000000E+00  0.0000000E+00  0.0000000E+00  0.0000000E+00
  0.0000000E+00  0.0000000E+00  0.0000000E+00  0.0000000E+00  0.0000000E+00
  0.0000000E+00  0.0000000E+00  0.0000000E+00  0.0000000E+00  0.0000000E+00
  0.0000000E+00  0.0000000E+00  0.0000000E+00  0.0000000E+00  0.0000000E+00
  0.0000000E+00  0.0000000E+00  0.0000000E+00  0.0000000E+00  0.0000000E+00
  0.0000000E+00  0.0000000E+00  0.0000000E+00  0.0000000E+00  0.0000000E+00
  0.0000000E+00  0.0000000E+00  0.0000000E+00  0.0000000E+00  0.0000000E+00
  0.0000000E+00  0.0000000E+00  0.0000000E+00  0.0000000E+00  0.0000000E+00
  0.0000000E+00  0.0000000E+00  0.0000000E+00  0.0000000E+00  0.0000000E+00
  0.0000000E+00  0.0000000E+00  0.0000000E+00  0.0000000E+00  0.0000000E+00
  0.0000000E+00  0.0000000E+00  0.0000000E+00  0.0000000E+00  0.0000000E+00
  0.0000000E+00  0.0000000E+00  0.0000000E+00  0.0000000E+00  0.0000000E+00
  0.0000000E+00  0.0000000E+00  0.0000000E+00  0.0000000E+00  0.0000000E+00
  0.0000000E+00  0.0000000E+00  0.0000000E+00  0.0000000E+00  0.0000000E+00
  0.0000000E+00  0.0000000E+00  0.0000000E+00  0.0000000E+00  0.0000000E+00
  0.0000000E+00  0.0000000E+00  0.0000000E+00  0.0000000E+00  0.0000000E+00
  0.0000000E+00  0.0000000E+00  0.0000000E+00  0.0000000E+00  0.0000000E+00
  0.0000000E+00  0.0000000E+00  0.0000000E+00  0.0000000E+00  0.0000000E+00
  0.0000000E+00  0.0000000E+00  0.0000000E+00  0.0000000E+00  0.0000000E+00
  0.0000000E+00  0.0000000E+00  0.0000000E+00  0.0000000E+00  0.0000000E+00
  0.0000000E+00  0.0000000E+00  0.0000000E+00  0.0000000E+00  0.0000000E+00
  0.0000000E+00  0.0000000E+00  0.0000000E+00  0.0000000E+00  0.0000000E+00
  0.0000000E+00  0.0000000E+00  0.0000000E+00  0.0000000E+00  0.0000000E+00
  0.0000000E+00  0.0000000E+00  0.0000000E+00  0.0000000E+00  0.0000000E+00
  0.0000000E+00  0.0000000E+00  0.0000000E+00  0.0000000E+00  0.0000000E+00
  0.0000000E+00  0.0000000E+00  0.0000000E+00  0.0000000E+00  0.0000000E+00
  0.0000000E+00  0.0000000E+00  0.0000000E+00  0.0000000E+00  0.0000000E+00
  0.0000000E+00  0.0000000E+00  0.0000000E+00  0.0000000E+00  0.0000000E+00
  0.0000000E+00  0.0000000E+00  0.0000000E+00  0.0000000E+00  0.0000000E+00
  0.0000000E+00  0.0000000E+00  0.0000000E+00  0.0000000E+00  0.0000000E+00
  0.0000000E+00  0.0000000E+00  0.0000000E+00  0.0000000E+00  0.0000000E+00
  0.0000000E+00  0.0000000E+00  0.0000000E+00  0.0000000E+00  0.0000000E+00
  0.0000000E+00  0.0000000E+00  0.0000000E+00  0.0000000E+00  0.0000000E+00
  0.0000000E+00  0.0000000E+00  0.0000000E+00  0.0000000E+00  0.0000000E+00
  0.0000000E+00  0.0000000E+00  0.0000000E+00  0.0000000E+00  0.0000000E+00
  0.0000000E+00  0.0000000E+00  0.0000000E+00  0.0000000E+00  0.0000000E+00
  0.0000000E+00  0.0000000E+00  0.0000000E+00  0.0000000E+00  0.0000000E+00
  0.0000000E+00  0.0000000E+00  0.0000000E+00  0.0000000E+00  0.0000000E+00
  0.0000000E+00  0.0000000E+00  0.0000000E+00  0.0000000E+00  0.0000000E+00
  0.0000000E+00  0.0000000E+00  0.0000000E+00  0.0000000E+00  0.0000000E+00
  0.0000000E+00  0.0000000E+00  0.0000000E+00  0.0000000E+00  0.0000000E+00
  0.0000000E+00  0.0000000E+00  0.0000000E+00  0.0000000E+00  0.0000000E+00
  0.0000000E+00  0.0000000E+00  0.0000000E+00  0.0000000E+00  0.0000000E+00
  0.0000000E+00  0.0000000E+00  0.0000000E+00  0.0000000E+00  0.0000000E+00
  0.0000000E+00  0.0000000E+00  0.0000000E+00  0.0000000E+00  0.0000000E+00
  0.0000000E+00  0.0000000E+00  0.0000000E+00  0.0000000E+00  0.0000000E+00
  0.0000000E+00  0.0000000E+00  0.0000000E+00  0.0000000E+00  0.0000000E+00
  0.0000000E+00  0.0000000E+00  0.0000000E+00  0.0000000E+00  0.0000000E+00
  0.0000000E+00  0.0000000E+00  0.0000000E+00  0.0000000E+00  0.0000000E+00
  0.0000000E+00  0.0000000E+00  0.0000000E+00  0.0000000E+00  0.0000000E+00
  0.0000000E+00  0.0000000E+00  0.0000000E+00  0.0000000E+00  0.0000000E+00
  0.0000000E+00  0.0000000E+00  0.0000000E+00  0.0000000E+00  0.0000000E+00
  0.0000000E+00  0.0000000E+00  0.0000000E+00  0.0000000E+00  0.0000000E+00
  0.0000000E+00  0.0000000E+00  0.0000000E+00  0.0000000E+00  0.0000000E+00
  0.0000000E+00  0.0000000E+00  0.0000000E+00  0.0000000E+00  0.0000000E+00
  0.0000000E+00  0.0000000E+00  0.0000000E+00  0.0000000E+00  0.0000000E+00
  0.0000000E+00  0.0000000E+00  0.0000000E+00  0.0000000E+00  0.0000000E+00
  0.0000000E+00  0.0000000E+00  0.0000000E+00  0.0000000E+00  0.0000000E+00