<VTKFile type="RectilinearGrid" version="0.1" format="ascii">
 <RectilinearGrid WholeExtent="1 51 1 101 1 1">
  <Piece Extent="1 51 1 101 1 1">
   <Coordinates>
    <DataArray type="Float32" Name="X_COORDINATES" NumberOfComponents="1" format="ascii">
  0.0000000E+00   1.000000       2.000000       3.000000       4.000000    
   5.000000       6.000000       7.000000       8.000000       9.000000    
   10.00000       11.00000       12.00000       13.00000       14.00000    
   15.00000       16.00000       17.00000       18.00000       19.00000    
   20.00000       21.00000       22.00000       23.00000       24.00000    
   25.00000       26.00000       27.00000       28.00000       29.00000    
   30.00000       31.00000       32.00000       33.00000       34.00000    
   35.00000       36.00000       37.00000       38.00000       39.00000    
   40.00000       41.00000       42.00000       43.00000       44.00000    
   45.00000       46.00000       47.00000       48.00000       49.00000    
   50.00000    
    </DataArray>
    <DataArray type="Float32" Name="Y_COORDINATES" NumberOfComponents="1" format="ascii">
  0.0000000E+00  4.9999999E-03  9.9999998E-03  1.5000000E-02  2.0000000E-02
  2.5000000E-02  2.9999999E-02  3.5000000E-02  3.9999999E-02  4.5000002E-02
  5.0000001E-02  5.5000000E-02  5.9999999E-02  6.4999998E-02  7.0000000E-02
  7.5000003E-02  7.9999998E-02  8.5000001E-02  9.0000004E-02  9.4999999E-02
  0.1000000      0.1050000      0.1100000      0.1150000      0.1200000    
  0.1250000      0.1300000      0.1350000      0.1400000      0.1450000    
  0.1500000      0.1550000      0.1600000      0.1650000      0.1700000    
  0.1750000      0.1800000      0.1850000      0.1900000      0.1950000    
  0.2000000      0.2050000      0.2100000      0.2150000      0.2200000    
  0.2250000      0.2300000      0.2350000      0.2400000      0.2450000    
  0.2500000      0.2550000      0.2600000      0.2650000      0.2700000    
  0.2750000      0.2800000      0.2850000      0.2900000      0.2950000    
  0.3000000      0.3050000      0.3100000      0.3150000      0.3200000    
  0.3250000      0.3300000      0.3350000      0.3400000      0.3450000    
  0.3500000      0.3550000      0.3600000      0.3650000      0.3700000    
  0.3750000      0.3800000      0.3850000      0.3900000      0.3950000    
  0.4000000      0.4050000      0.4100000      0.4150000      0.4200000    
  0.4250000      0.4300000      0.4350000      0.4400000      0.4450000    
  0.4500000      0.4550000      0.4600000      0.4650000      0.4700000    
  0.4750000      0.4800000      0.4850000      0.4900000      0.4950000    
  0.5000000    
    </DataArray>
    <DataArray type="Float32" Name="Z_COORDINATES" NumberOfComponents="1" format="ascii">
  0.0000000E+00
    </DataArray>
   </Coordinates>
   <PointData>
         <DataArray type="Float32" Name="LocalDOS_sg1_deg1_Lead1[nm^-1eV^-1]" NumberOfComponents="1" format="ascii">
  0.0000000E+00  0.0000000E+00  0.0000000E+00  0.0000000E+00  0.0000000E+00
  0.0000000E+00  0.0000000E+00  0.0000000E+00  0.0000000E+00  0.0000000E+00
  0.0000000E+00  0.0000000E+00  0.0000000E+00  0.0000000E+00  0.0000000E+00
  0.0000000E+00  0.0000000E+00  0.0000000E+00  0.0000000E+00  0.0000000E+00
  0.0000000E+00  0.0000000E+00  0.0000000E+00  0.0000000E+00  0.0000000E+00
  0.0000000E+00  0.0000000E+00  0.0000000E+00  0.0000000E+00  0.0000000E+00
  0.0000000E+00  0.0000000E+00  0.0000000E+00  0.0000000E+00  0.0000000E+00
  0.0000000E+00  0.0000000E+00  0.0000000E+00  0.0000000E+00  0.0000000E+00
  0.0000000E+00  0.0000000E+00  0.0000000E+00  0.0000000E+00  0.0000000E+00
  0.0000000E+00  0.0000000E+00  0.0000000E+00  0.0000000E+00  0.0000000E+00
  0.0000000E+00   19.76111       10.64292       11.24044       11.65216    
   11.86363       11.86742       11.66341       11.25875       10.66764    
   9.910831       9.014878       8.011223       6.935088       5.824238    
   4.717658       3.654181       2.671127       1.802997       1.080255    
  0.6694584      0.5384037      0.5004157      0.4554148      0.4049800    
  0.3508813      0.2950173      0.2393484      0.1858282      0.1363349    
  9.2605501E-02  5.6174487E-02  3.5751089E-02  3.0225506E-02  3.0225506E-02
  3.0225506E-02  3.0225506E-02  3.0225506E-02  3.0225506E-02  3.0225506E-02
  3.0225506E-02  3.0225506E-02  3.0225506E-02  3.0225506E-02  3.0225506E-02
  3.0225506E-02  3.0225506E-02  3.0225506E-02  3.0225506E-02  3.0225506E-02
  3.0225506E-02  6.0451012E-02   1.197819       1.283432       2.167085    
   3.187986       4.274639       5.350941       6.341518       7.176997    
   7.798868       8.163580       8.245590       8.039156       7.558735    
   6.837972       5.927342       4.890621       3.800411       2.733063    
   1.763326       1.201425       1.077235       1.108541       1.101437    
   1.056419      0.9766409      0.8676890      0.7371936      0.5942937    
  0.4489968      0.3114785      0.1913695      0.1224087      0.1035572    
  0.1035572      0.1035572      0.1035572      0.1035572      0.1035572    
  0.1035572      0.1035572      0.1035572      0.1035572      0.1035572    
  0.1035572      0.1035572      0.1035572      0.1035572      0.1035572    
  0.1035572      0.1035572      0.2071144       2.757427      0.6569839    
  0.1889495      2.3667991E-02  0.1784637      0.6371114       1.351537    
   2.246858       3.229228       4.195681       5.044914       5.687916    
   6.057288       6.114314       5.853017       5.300785       4.515501    
   3.579477       2.590822       2.036972       2.129850       2.504584    
   2.772238       2.904756       2.888249       2.724448       2.430520    
   2.037275       1.585931       1.123796      0.6993107      0.4495648    
  0.3805789      0.3805789      0.3805789      0.3805789      0.3805789    
  0.3805789      0.3805789      0.3805789      0.3805789      0.3805789    
  0.3805789      0.3805789      0.3805789      0.3805789      0.3805789    
  0.3805789      0.3805789      0.3805789      0.7611579       5.712415    
   2.596253       2.217719       1.773389       1.325225      0.9357206    
  0.6591908      0.5341967      0.5781683      0.7849739       1.125775    
   1.553049       2.007213       2.424937       2.747970       2.931266    
   2.949267       2.799460       2.502738       2.520921       3.347608    
   4.739244       6.018455       7.006858       7.566625       7.619698    
   7.158677       6.247849       5.014225       3.629830       2.287712    
   1.478086       1.252092       1.252092       1.252092       1.252092    
   1.252092       1.252092       1.252092       1.252092       1.252092    
   1.252092       1.252092       1.252092       1.252092       1.252092    
   1.252092       1.252092       1.252092       1.252092       2.504185    
   2.662902      0.9276735      0.6323913      0.4969605      0.5449351    
  0.7679715       1.127279       1.560366       1.991910       2.346857    
   2.563473       2.604084       2.461628       2.160881       1.754148    
   1.312169      0.9118139      0.6227126      0.4951459      0.6370775    
   1.218052       2.256677       3.432497       4.541011       5.389426    
   5.830184       5.786627       5.266332       4.359789       3.224665    
   2.058381       1.336575       1.132960       1.132960       1.132960    
   1.132960       1.132960       1.132960       1.132960       1.132960    
   1.132960       1.132960       1.132960       1.132960       1.132960    
   1.132960       1.132960       1.132960       1.132960       1.132960    
   2.265920       6.552323       2.735902       2.004190       1.233397    
  0.5840358      0.1913287      0.1370544      0.4325148       1.016183    
   1.766515       2.527260       3.140001       3.477139       3.468467    
   3.115792       2.492556       1.728541      0.9828478      0.4107601    
  0.1664681      0.2379331      0.5983511       1.150589       1.779649    
   2.354533       2.755528       2.899130       2.755434       2.354365    
   1.779441       1.150385      0.7507119      0.6367651      0.6367651    
  0.6367651      0.6367651      0.6367651      0.6367651      0.6367651    
  0.6367651      0.6367651      0.6367651      0.6367651      0.6367651    
  0.6367651      0.6367651      0.6367651      0.6367651      0.6367651    
  0.6367651       1.273530       6.940502       3.621974       3.341620    
   2.697150       1.844787      0.9911510      0.3431683      5.7914961E-02
  0.2045385      0.7474964       1.555172       2.431778       3.164820    
   3.576603       3.567308       3.139188       2.396022       1.517959    
  0.7178483      0.2572914      0.1078482      0.1824363      0.4413451    
  0.8218132       1.231613       1.571405       1.758822       1.748432    
   1.542755       1.191648      0.7802207      0.5116854      0.4343041    
  0.4343041      0.4343041      0.4343041      0.4343041      0.4343041    
  0.4343041      0.4343041      0.4343041      0.4343041      0.4343041    
  0.4343041      0.4343041      0.4343041      0.4343041      0.4343041    
  0.4343041      0.4343041      0.8686081       4.628217       3.082507    
   3.490672       3.425780       2.905767       2.074375       1.161416    
  0.4192483      5.3020228E-02  0.1639642      0.7214133       1.571278    
   2.478641       3.192690       3.516050       3.359336       2.765869    
   1.899693       1.000235      0.4214064      0.1620676      9.4136558E-02
  0.1946303      0.4357706      0.7509018       1.052916       1.258331    
   1.310366       1.194638      0.9431360      0.6253801      0.4121715    
  0.3500693      0.3500693      0.3500693      0.3500693      0.3500693    
  0.3500693      0.3500693      0.3500693      0.3500693      0.3500693    
  0.3500693      0.3500693      0.3500693      0.3500693      0.3500693    
  0.3500693      0.3500693      0.3500693      0.7001385       1.923272    
   1.875114       2.732564       3.267940       3.315129       2.859489    
   2.042394       1.117367      0.3714219      3.6005579E-02  0.2151895    
  0.8533773       1.752556       2.633732       3.223500       3.338869    
   2.944044       2.161528       1.234116      0.5891751      0.2675001    
  0.1131531      0.1080085      0.2536625      0.5049224      0.7838285    
   1.003843       1.096702       1.033593      0.8340966      0.5601123    
  0.3709799      0.3152910      0.3152910      0.3152910      0.3152910    
  0.3152910      0.3152910      0.3152910      0.3152910      0.3152910    
  0.3152910      0.3152910      0.3152910      0.3152910      0.3152910    
  0.3152910      0.3152910      0.3152910      0.3152910      0.6305820    
  0.2987283      0.7368397       1.622042       2.500483       3.069999    
   3.134690       2.672304       1.841890      0.9290925      0.2478914    
  3.2604076E-02  0.3572844       1.110250       2.032498       2.806797    
   3.166807       2.988692       2.333719       1.427185      0.7512881    
  0.3946641      0.1817146      9.4296642E-02  0.1624801      0.3628113    
  0.6263812      0.8625277      0.9900222      0.9650094      0.7960932    
  0.5413767      0.3603369      0.3064470      0.3064470      0.3064470    
  0.3064470      0.3064470      0.3064470      0.3064470      0.3064470    
  0.3064470      0.3064470      0.3064470      0.3064470      0.3064470    
  0.3064470      0.3064470      0.3064470      0.3064470      0.3064470    
  0.6128941      0.1964079      0.1110506      0.6510748       1.514405    
   2.375113       2.908261       2.912573       2.386422       1.528441    
  0.6625397      0.1156153      9.4145253E-02  0.6062349       1.458558    
   2.329343       2.889847       2.928467       2.430623       1.584263    
  0.9067420      0.5362711      0.2827781      0.1246653      0.1216239    
  0.2748022      0.5263717      0.7813590      0.9435002      0.9515833    
  0.8025566      0.5526813      0.3696669      0.3145885      0.3145885    
  0.3145885      0.3145885      0.3145885      0.3145885      0.3145885    
  0.3145885      0.3145885      0.3145885      0.3145885      0.3145885    
  0.3145885      0.3145885      0.3145885      0.3145885      0.3145885    
  0.3145885      0.6291770       1.265360      0.1078214      0.1181695    
  0.6594723       1.509300       2.318443       2.754413       2.638062    
   2.017200       1.146950      0.3849122      4.4219773E-02  0.2648691    
  0.9561917       1.834112       2.537878       2.778301       2.456587    
   1.704933       1.053999      0.6899872      0.4115646      0.1897102    
  0.1155875      0.2196548      0.4591491      0.7356583      0.9355603    
  0.9767120      0.8422035      0.5873066      0.3947478      0.3361537    
  0.3361537      0.3361537      0.3361537      0.3361537      0.3361537    
  0.3361537      0.3361537      0.3361537      0.3361537      0.3361537    
  0.3361537      0.3361537      0.3361537      0.3361537      0.3361537    
  0.3361537      0.3361537      0.6723074       2.746437      0.5704256    
  9.6176408E-02  0.1611106      0.7363873       1.566495       2.282737    
   2.566993       2.293008       1.582474      0.7509775      0.1678321    
  9.2043795E-02  0.5572744       1.356890       2.135737       2.547888    
   2.410284       1.784042       1.188688      0.8532006      0.5667657    
  0.2874336      0.1392708      0.1880846      0.4121940      0.7120599    
  0.9544955       1.031822      0.9096945      0.6423565      0.4338529    
  0.3696976      0.3696976      0.3696976      0.3696976      0.3696976    
  0.3696976      0.3696976      0.3696976      0.3696976      0.3696976    
  0.3696976      0.3696976      0.3696976      0.3696976      0.3696976    
  0.3696976      0.3696976      0.3696976      0.7393951       3.863093    
   1.194237      0.4626783      8.5996360E-02  0.2439586      0.8611794    
   1.643098       2.216553       2.307870       1.873469       1.120663    
  0.4087194      7.7403933E-02  0.2848332      0.9320142       1.710088    
   2.247728       2.288352       1.812573       1.302462       1.020226    
  0.7462682      0.4180741      0.1922700      0.1766180      0.3785879    
  0.7017921      0.9919853       1.110676       1.001221      0.7158566    
  0.4858432      0.4142728      0.4142728      0.4142728      0.4142728    
  0.4142728      0.4142728      0.4142728      0.4142728      0.4142728    
  0.4142728      0.4142728      0.4142728      0.4142728      0.4142728    
  0.4142728      0.4142728      0.4142728      0.4142728      0.8285457    
   4.131946       1.663692      0.9734314      0.3473397      0.1048277    
  0.3696167       1.006620       1.690861       2.073261       1.958734    
   1.405707      0.6963162      0.1924687      0.1512108      0.5935909    
   1.293921       1.894917       2.089971       1.779572       1.382585    
   1.180053      0.9436218      0.5803468      0.2755586      0.1847498    
  0.3542481      0.6975812       1.039592       1.205798       1.111407    
  0.8045731      0.5486957      0.4681751      0.4681751      0.4681751    
  0.4681751      0.4681751      0.4681751      0.4681751      0.4681751    
  0.4681751      0.4681751      0.4681751      0.4681751      0.4681751    
  0.4681751      0.4681751      0.4681751      0.4681751      0.4681751    
  0.9363502       3.529778       1.778820       1.365338      0.7489396    
  0.2642926      0.1745315      0.5283911       1.133747       1.661926    
   1.826159       1.537278      0.9521264      0.3884080      0.1521882    
  0.3717201      0.9278111       1.518537       1.823168       1.676309    
   1.413233       1.315086       1.144732      0.7675445      0.3883130    
  0.2129381      0.3366379      0.6922507       1.086700       1.305823    
   1.230649      0.9019936      0.6180983      0.5277410      0.5277410    
  0.5277410      0.5277410      0.5277410      0.5277410      0.5277410    
  0.5277410      0.5277410      0.5277410      0.5277410      0.5277410    
  0.5277410      0.5277410      0.5277410      0.5277410      0.5277410    
  0.5277410       1.055482       2.460856       1.535415       1.468411    
   1.067980      0.5645949      0.2479838      0.3003755      0.6916152    
   1.196521       1.524490       1.486755       1.105036      0.5990344    
  0.2599851      0.2830310      0.6549078       1.161578       1.511423    
   1.503085       1.379970       1.402773       1.326409      0.9641546    
  0.5245087      0.2605139      0.3241151      0.6787059       1.120198    
   1.394486       1.343701      0.9970728      0.6865323      0.5865581    
  0.5865581      0.5865581      0.5865581      0.5865581      0.5865581    
  0.5865581      0.5865581      0.5865581      0.5865581      0.5865581    
  0.5865581      0.5865581      0.5865581      0.5865581      0.5865581    
  0.5865581      0.5865581       1.173116       1.507351       1.114224    
   1.283547       1.158690      0.8155698      0.4628124      0.3149028    
  0.4617738      0.8141239       1.157716       1.283637       1.115324    
  0.7551155      0.4220273      0.3185853      0.5076847      0.8743484    
   1.195636       1.276196       1.277438       1.422120       1.459867    
   1.145745      0.6707485      0.3236870      0.3155826      0.6513630    
   1.126865       1.452972       1.431403       1.075271      0.7439163    
  0.6360058      0.6360058      0.6360058      0.6360058      0.6360058    
  0.6360058      0.6360058      0.6360058      0.6360058      0.6360058    
  0.6360058      0.6360058      0.6360058      0.6360058      0.6360058    
  0.6360058      0.6360058      0.6360058       1.272012       1.070041    
  0.7622676      0.9696482       1.024369      0.8913910      0.6558640    
  0.4686046      0.4495214      0.6108342      0.8492487       1.012100    
  0.9951079      0.8091539      0.5733104      0.4385965      0.4912741    
  0.6976119      0.9254846       1.028977       1.116393       1.363821    
   1.520591       1.285021      0.8079545      0.3948739      0.3102893    
  0.6083632       1.098228       1.466207       1.476669       1.122916    
  0.7805788      0.6677916      0.6677916      0.6677916      0.6677916    
  0.6677916      0.6677916      0.6677916      0.6677916      0.6677916    
  0.6677916      0.6677916      0.6677916      0.6677916      0.6677916    
  0.6677916      0.6677916      0.6677916      0.6677916       1.335583    
   1.145378      0.6324798      0.7294240      0.7983273      0.7928529    
  0.7166822      0.6210394      0.5702433      0.5984539      0.6866998    
  0.7756364      0.8054547      0.7561022      0.6607679      0.5835633    
  0.5764078      0.6441134      0.7411487      0.8022583      0.9234031    
   1.237282       1.499809       1.362493      0.9176775      0.4644975    
  0.3077120      0.5527580       1.034844       1.429772       1.471956    
   1.133028      0.7913443      0.6774496      0.6774496      0.6774496    
  0.6774496      0.6774496      0.6774496      0.6774496      0.6774496    
  0.6774496      0.6774496      0.6774496      0.6774496      0.6774496    
  0.6774496      0.6774496      0.6774496      0.6774496      0.6774496    
   1.354899       1.417166      0.7056629      0.6759416      0.6403576    
  0.6239794      0.6383455      0.6733349      0.7042980      0.7094215    
  0.6850960      0.6484585      0.6253199      0.6319811      0.6637494    
  0.6982442      0.7111642      0.6934075      0.6574834      0.6287002    
  0.7310879       1.067726       1.408566       1.374356      0.9891984    
  0.5244327      0.3074827      0.4911880      0.9461297       1.351805    
   1.422419       1.108225      0.7776772      0.6661905      0.6661905    
  0.6661905      0.6661905      0.6661905      0.6661905      0.6661905    
  0.6661905      0.6661905      0.6661905      0.6661905      0.6661905    
  0.6661905      0.6661905      0.6661905      0.6661905      0.6661905    
  0.6661905       1.332381       1.548639      0.8468862      0.7855380    
  0.6354479      0.5071328      0.4950761      0.6081556      0.7631065    
  0.8458326      0.7954195      0.6489882      0.5143618      0.4906708    
  0.5953597      0.7513422      0.8437623      0.8045676      0.6626187    
  0.5224379      0.5657361      0.8850423       1.270993       1.331545    
   1.022112      0.5705414      0.3093414      0.4308439      0.8455819    
   1.248168       1.342163       1.058354      0.7461749      0.6396279    
  0.6396279      0.6396279      0.6396279      0.6396279      0.6396279    
  0.6396279      0.6396279      0.6396279      0.6396279      0.6396279    
  0.6396279      0.6396279      0.6396279      0.6396279      0.6396279    
  0.6396279      0.6396279       1.279256       1.399802      0.9204950    
  0.9507617      0.7674558      0.5113616      0.3791671      0.4724017    
  0.7194584      0.9305903      0.9436417      0.7485888      0.4952381    
  0.3781705      0.4872974      0.7388061      0.9395304      0.9353080    
  0.7293819      0.4799094      0.4409019      0.7131802       1.113100    
   1.252121       1.023470      0.6027587      0.3131055      0.3769728    
  0.7453087       1.135220       1.247243      0.9953414      0.7050359    
  0.6047640      0.6047640      0.6047640      0.6047640      0.6047640    
  0.6047640      0.6047640      0.6047640      0.6047640      0.6047640    
  0.6047640      0.6047640      0.6047640      0.6047640      0.6047640    
  0.6047640      0.6047640      0.6047640       1.209528       1.044479    
  0.8642149       1.062457      0.9584574      0.6353711      0.3515272    
  0.3338778      0.5965349      0.9294865       1.066515      0.8980579    
  0.5588070      0.3200166      0.3726156      0.6745476      0.9843976    
   1.054420      0.8286269      0.4875552      0.3585867      0.5659561    
  0.9550297       1.153634       1.002972      0.6235075      0.3186482    
  0.3321494      0.6532161       1.025134       1.150530      0.9291408    
  0.6612130      0.5675501      0.5675501      0.5675501      0.5675501    
  0.5675501      0.5675501      0.5675501      0.5675501      0.5675501    
  0.5675501      0.5675501      0.5675501      0.5675501      0.5675501    
  0.5675501      0.5675501      0.5675501      0.5675501       1.135100    
  0.6624685      0.6952076       1.059982       1.122449      0.8307012    
  0.4271663      0.2471617      0.4402620      0.8460108       1.127251    
   1.050287      0.6790708      0.3220653      0.2759238      0.5789874    
  0.9794257       1.144495      0.9370300      0.5294248      0.3139187    
  0.4483759      0.8089942       1.049237      0.9694753      0.6359865    
  0.3258832      0.2968456      0.5730025      0.9248815       1.060089    
  0.8662740      0.6193368      0.5319588      0.5319588      0.5319588    
  0.5319588      0.5319588      0.5319588      0.5319588      0.5319588    
  0.5319588      0.5319588      0.5319588      0.5319588      0.5319588    
  0.5319588      0.5319588      0.5319588      0.5319588      0.5319588    
   1.063918      0.4240611      0.4773808      0.9394451       1.199842    
   1.034063      0.5850396      0.2399089      0.2962353      0.7054554    
   1.114749       1.171232      0.8262065      0.3771454      0.2112191    
  0.4714856      0.9335489       1.199028       1.039034      0.5915087    
  0.2994538      0.3599367      0.6807066      0.9471710      0.9295904    
  0.6431223      0.3347531      0.2703518      0.5054437      0.8373379    
  0.9798827      0.8101792      0.5819095      0.5001439      0.5001439    
  0.5001439      0.5001439      0.5001439      0.5001439      0.5001439    
  0.5001439      0.5001439      0.5001439      0.5001439      0.5001439    
  0.5001439      0.5001439      0.5001439      0.5001439      0.5001439    
  0.5001439       1.000288      0.4240271      0.2837056      0.7375599    
   1.168171       1.190895      0.7854336      0.3139658      0.1976303    
  0.5403439       1.035977       1.241806      0.9739727      0.4717203    
  0.1836859      0.3671563      0.8582466       1.218290       1.125677    
  0.6631352      0.3077379      0.2975266      0.5717224      0.8518322    
  0.8876477      0.6471767      0.3452201      0.2515008      0.4497337    
  0.7628471      0.9111522      0.7621754      0.5499497      0.4729892    
  0.4729892      0.4729892      0.4729892      0.4729892      0.4729892    
  0.4729892      0.4729892      0.4729892      0.4729892      0.4729892    
  0.4729892      0.4729892      0.4729892      0.4729892      0.4729892    
  0.4729892      0.4729892      0.9459785      0.6671351      0.1700794    
  0.5091873       1.037498       1.266763      0.9851028      0.4528188    
  0.1618318      0.3810631      0.9079058       1.255468       1.102543    
  0.5904602      0.1924700      0.2763832      0.7646497       1.206029    
   1.192611      0.7367972      0.3323867      0.2572462      0.4813857    
  0.7651067      0.8462029      0.6497278      0.3572575      0.2390842    
  0.4044200      0.7004666      0.8536268      0.7223547      0.5236040    
  0.4506299      0.4506299      0.4506299      0.4506299      0.4506299    
  0.4506299      0.4506299      0.4506299      0.4506299      0.4506299    
  0.4506299      0.4506299      0.4506299      0.4506299      0.4506299    
  0.4506299      0.4506299      0.4506299      0.9012599       1.086457    
  0.1634620      0.3082887      0.8394086       1.249637       1.147234    
  0.6299870      0.1918325      0.2511790      0.7513547       1.214725    
   1.198802      0.7187915      0.2330711      0.2054717      0.6623488    
   1.167415       1.238366      0.8074483      0.3683121      0.2353220    
  0.4080886      0.6874330      0.8065999      0.6517929      0.3708424    
  0.2320373      0.3679273      0.6487465      0.8063313      0.6901986    
  0.5025758      0.4328205      0.4328205      0.4328205      0.4328205    
  0.4328205      0.4328205      0.4328205      0.4328205      0.4328205    
  0.4328205      0.4328205      0.4328205      0.4328205      0.4328205    
  0.4328205      0.4328205      0.4328205      0.4328205      0.8656409    
   1.575577      0.2611723      0.1754642      0.6151330       1.146866    
   1.246618      0.8160788      0.2795633      0.1658306      0.5869691    
   1.127929       1.255571      0.8440984      0.2990353      0.1575644    
  0.5591115       1.107935       1.263145      0.8717765      0.4115780    
  0.2284595      0.3499699      0.6185091      0.7694203      0.6539740    
  0.3859475      0.2294924      0.3388018      0.6061468      0.7680473    
  0.6649435      0.4863825      0.4191537      0.4191537      0.4191537    
  0.4191537      0.4191537      0.4191537      0.4191537      0.4191537    
  0.4191537      0.4191537      0.4191537      0.4191537      0.4191537    
  0.4191537      0.4191537      0.4191537      0.4191537      0.4191537    
  0.8383074       2.021704      0.4371183      0.1319887      0.4054742    
  0.9797142       1.271282      0.9839460      0.4096383      0.1318544    
  0.4328220       1.006759       1.270546      0.9561772      0.3830496    
  0.1334598      0.4609905       1.032871       1.268073      0.9276306    
  0.4591484      0.2339081      0.3052529      0.5577149      0.7347934    
  0.6565771      0.4025335      0.2307703      0.3157985      0.5712296    
  0.7375463      0.6457712      0.4744909      0.4091785      0.4091785    
  0.4091785      0.4091785      0.4091785      0.4091785      0.4091785    
  0.4091785      0.4091785      0.4091785      0.4091785      0.4091785    
  0.4091785      0.4091785      0.4091785      0.4091785      0.4091785    
  0.4091785      0.8183570       2.332301      0.6513312      0.1790814    
  0.2435152      0.7772155       1.221773       1.112048      0.5628459    
  0.1487951      0.3031164      0.8643436       1.245266       1.047325    
  0.4776266      0.1322441      0.3725508      0.9471145       1.254770    
  0.9736189      0.5086410      0.2494005      0.2723785      0.5043460    
  0.7025961      0.6597000      0.4205399      0.2353485      0.2978910    
  0.5427294      0.7136899      0.6318968      0.4663820      0.4024540    
  0.4024540      0.4024540      0.4024540      0.4024540      0.4024540    
  0.4024540      0.4024540      0.4024540      0.4024540      0.4024540    
  0.4024540      0.4024540      0.4024540      0.4024540      0.4024540    
  0.4024540      0.4024540      0.8049081       2.451884      0.8601120    
  0.3009042      0.1502741      0.5703663       1.108976       1.186319    
  0.7191417      0.2103327      0.2075964      0.7138782       1.184195    
   1.112277      0.5755399      0.1517511      0.2970947      0.8551167    
   1.225138       1.008852      0.5581268      0.2730485      0.2500318    
  0.4577339      0.6725752      0.6632914      0.4398758      0.2428227    
  0.2842486      0.5195608      0.6954591      0.6225990      0.4615733    
  0.3985704      0.3985704      0.3985704      0.3985704      0.3985704    
  0.3985704      0.3985704      0.3985704      0.3985704      0.3985704    
  0.3985704      0.3985704      0.3985704      0.3985704      0.3985704    
  0.3985704      0.3985704      0.3985704      0.7971408       2.368333    
   1.024939      0.4698550      0.1330789      0.3872311      0.9511089    
   1.200819      0.8600730      0.3058845      0.1514263      0.5675962    
   1.093930       1.148073      0.6701208      0.1888952      0.2368408    
  0.7609090       1.181253       1.032790      0.6059821      0.3032346    
  0.2371164      0.4172991      0.6444225      0.6671895      0.4604099    
  0.2528717      0.2742023      0.5008007      0.6819509      0.6172219    
  0.4596215      0.3971501      0.3971501      0.3971501      0.3971501    
  0.3971501      0.3971501      0.3971501      0.3971501      0.3971501    