<VTKFile type = "RectilinearGrid" version = "0.1" format = "ascii">
<RectilinearGrid WholeExtent = "1 50 1 401 1 1">
<Piece Extent = "1 50 1 401 1 1">
<Coordinates>
<DataArray type = "Float64" Name = "X_COORDINATES" NumberOfComponents = "1" format = "ascii">
0.5	1.5	2.5	3.5	4.5
5.5	6.5	7.5	8.5	9.5
10.5	11.5	12.5	13.5	14.5
15.5	16.5	17.5	18.5	19.5
20.5	21.5	22.5	23.5	24.5
25.5	26.5	27.5	28.5	29.5
30.5	31.5	32.5	33.5	34.5
35.5	36.5	37.5	38.5	39.5
40.5	41.5	42.5	43.5	44.5
45.5	46.5	47.5	48.5	49.5
</DataArray>
<DataArray type = "Float64" Name = "Y_COORDINATES" NumberOfComponents = "1" format = "ascii">
2.86563	2.86688	2.86813	2.86938	2.87063
2.87188	2.87313	2.87438	2.87563	2.87688
2.87813	2.87938	2.88063	2.88188	2.88313
2.88438	2.88563	2.88688	2.88813	2.88938
2.89063	2.89188	2.89313	2.89438	2.89563
2.89688	2.89813	2.89938	2.90063	2.90188
2.90313	2.90438	2.90563	2.90688	2.90813
2.90938	2.91063	2.91188	2.91313	2.91438
2.91563	2.91688	2.91813	2.91938	2.92063
2.92188	2.92313	2.92438	2.92563	2.92688
2.92813	2.92938	2.93063	2.93188	2.93313
2.93438	2.93563	2.93688	2.93813	2.93938
2.94063	2.94188	2.94313	2.94438	2.94563
2.94688	2.94813	2.94938	2.95063	2.95188
2.95313	2.95438	2.95563	2.95688	2.95813
2.95938	2.96063	2.96188	2.96313	2.96438
2.96563	2.96688	2.96813	2.96938	2.97063
2.97188	2.97313	2.97438	2.97563	2.97688
2.97813	2.97938	2.98063	2.98188	2.98313
2.98438	2.98563	2.98688	2.98813	2.98938
2.99063	2.99188	2.99313	2.99438	2.99563
2.99688	2.99813	2.99938	3.00063	3.00188
3.00313	3.00438	3.00563	3.00688	3.00813
3.00938	3.01063	3.01188	3.01313	3.01438
3.01563	3.01688	3.01813	3.01938	3.02063
3.02188	3.02313	3.02438	3.02563	3.02688
3.02813	3.02938	3.03063	3.03188	3.03313
3.03438	3.03563	3.03688	3.03813	3.03938
3.04063	3.04188	3.04313	3.04438	3.04563
3.04688	3.04813	3.04938	3.05063	3.05188
3.05313	3.05438	3.05563	3.05688	3.05813
3.05938	3.06063	3.06188	3.06313	3.06438
3.06563	3.06688	3.06813	3.06938	3.07063
3.07188	3.07313	3.07438	3.07563	3.07688
3.07813	3.07938	3.08063	3.08188	3.08313
3.08438	3.08563	3.08688	3.08813	3.08938
3.09063	3.09188	3.09313	3.09438	3.09563
3.09688	3.09813	3.09938	3.10063	3.10188
3.10313	3.10438	3.10563	3.10688	3.10813
3.10938	3.11063	3.11188	3.11313	3.11438
3.11563	3.11688	3.11813	3.11938	3.12063
3.12188	3.12313	3.12438	3.12563	3.12688
3.12813	3.12938	3.13063	3.13187	3.13313
3.13438	3.13563	3.13688	3.13813	3.13938
3.14063	3.14188	3.14313	3.14438	3.14563
3.14688	3.14813	3.14938	3.15063	3.15188
3.15313	3.15438	3.15563	3.15688	3.15813
3.15938	3.16063	3.16188	3.16312	3.16438
3.16563	3.16688	3.16813	3.16938	3.17063
3.17188	3.17313	3.17438	3.17563	3.17688
3.17813	3.17938	3.18063	3.18188	3.18313
3.18438	3.18563	3.18688	3.18813	3.18938
3.19063	3.19188	3.19313	3.19437	3.19563
3.19688	3.19813	3.19938	3.20063	3.20188
3.20313	3.20438	3.20563	3.20688	3.20813
3.20938	3.21063	3.21188	3.21313	3.21438
3.21563	3.21688	3.21813	3.21938	3.22063
3.22188	3.22313	3.22438	3.22562	3.22688
3.22813	3.22938	3.23063	3.23188	3.23313
3.23438	3.23563	3.23688	3.23813	3.23938
3.24063	3.24188	3.24313	3.24438	3.24563
3.24688	3.24813	3.24938	3.25063	3.25188
3.25313	3.25438	3.25563	3.25687	3.25813
3.25938	3.26063	3.26188	3.26313	3.26438
3.26563	3.26688	3.26813	3.26938	3.27063
3.27188	3.27313	3.27438	3.27563	3.27688
3.27813	3.27938	3.28063	3.28188	3.28313
3.28438	3.28563	3.28688	3.28812	3.28938
3.29063	3.29188	3.29313	3.29438	3.29563
3.29688	3.29813	3.29938	3.30063	3.30188
3.30313	3.30438	3.30563	3.30688	3.30813
3.30938	3.31063	3.31188	3.31313	3.31438
3.31563	3.31688	3.31813	3.31937	3.32063
3.32188	3.32313	3.32438	3.32563	3.32688
3.32813	3.32938	3.33063	3.33188	3.33313
3.33438	3.33563	3.33688	3.33813	3.33938
3.34063	3.34188	3.34313	3.34438	3.34563
3.34688	3.34813	3.34938	3.35062	3.35188
3.35313	3.35438	3.35563	3.35688	3.35813
3.35938	3.36063	3.36188	3.36313	3.36438
3.36563	</DataArray>
<DataArray type = "Float64" Name = "Z_COORDINATES" NumberOfComponents = "1" format = "ascii">
0
</DataArray>
</Coordinates>
<PointData>
<DataArray type = "Float64" Name = "Density of States (Source) [1/eV/nm]" NumberOfComponents = "1" format = "ascii">
13.354	12.2679	11.202	10.1611	9.14976
8.17239	7.23329	6.3366	5.48626	4.68601
3.93936	3.2496	2.61975	2.05259	1.5506
1.116	0.750696	0.456289	0.234076	0.147785
0.128432	0.110176	0.0930964	0.0772683	0.0627612
0.0496391	0.0379595	0.0277738	0.0191268	0.0120565
0.00659391	0.00464258	0.00464258	0.00464258	0.00464258
0.00464258	0.00464258	0.00464258	0.00464258	0.00464258
0.00464258	0.00464258	0.00464258	0.00464258	0.00464258
0.00464258	0.00464258	0.00464258	0.00464258	0.00464258
16.6651	15.8338	14.9222	13.9424	12.9072
11.8303	10.7259	9.60854	8.49295	7.39383
6.32566	5.30253	4.3379	3.4445	2.6341
1.91738	1.30378	0.801395	0.416836	0.268108
0.237744	0.207738	0.178487	0.150375	0.123773
0.099031	0.0764758	0.0564043	0.039081	0.0247342
0.013553	0.00954512	0.00954512	0.00954512	0.00954512
0.00954512	0.00954512	0.00954512	0.00954512	0.00954512
0.00954512	0.00954512	0.00954512	0.00954512	0.00954512
0.00954512	0.00954512	0.00954512	0.00954512	0.00954512
15.0547	14.8761	14.5365	14.0434	13.4075
12.6429	11.7662	10.7969	9.75604	8.6666
7.55246	6.43807	5.34791	4.30589	3.3349
2.45625	1.68922	1.05066	0.554584	0.363821
0.329547	0.293546	0.25661	0.219548	0.183175
0.148288	0.115655	0.0859901	0.0599456	0.0380931
0.0209122	0.0147324	0.0147324	0.0147324	0.0147324
0.0147324	0.0147324	0.0147324	0.0147324	0.0147324
0.0147324	0.0147324	0.0147324	0.0147324	0.0147324
0.0147324	0.0147324	0.0147324	0.0147324	0.0147324
12.0059	12.4354	12.6784	12.7276	12.5814
12.2444	11.7268	11.0445	10.2186	9.27443
8.24091	7.14983	6.03471	4.92978	3.86899
2.88493	2.00781	1.26459	0.678078	0.454312
0.420862	0.382509	0.340429	0.295916	0.250336
0.20509	0.161567	0.121104	0.0849439	0.0541975
0.0298091	0.0210065	0.0210065	0.0210065	0.0210065
0.0210065	0.0210065	0.0210065	0.0210065	0.0210065
0.0210065	0.0210065	0.0210065	0.0210065	0.0210065
0.0210065	0.0210065	0.0210065	0.0210065	0.0210065
8.72854	9.58736	10.289	10.8059	11.1175
11.2116	11.0845	10.7411	10.195	9.46787
8.58828	7.59099	6.51536	5.40385	4.30032
3.24833	2.2894	1.46138	0.796956	0.54616
0.518149	0.480978	0.436117	0.385335	0.330636
0.27418	0.218195	0.164891	0.116371	0.074551
0.0410808	0.0289582	0.0289582	0.0289582	0.0289582
0.0289582	0.0289582	0.0289582	0.0289582	0.0289582
0.0289582	0.0289582	0.0289582	0.0289582	0.0289582
0.0289582	0.0289582	0.0289582	0.0289582	0.0289582
5.7687	6.84483	7.83486	8.69108	9.37219
9.84536	10.0878	10.0877	9.84527	9.37205
8.69089	7.83463	6.84457	5.76842	4.65809
3.56709	2.54804	1.65007	0.916458	0.643527
0.626199	0.594324	0.549439	0.493708	0.429817
0.360848	0.290125	0.221059	0.156978	0.100974
0.0557457	0.0393073	0.0393073	0.0393073	0.0393073
0.0393073	0.0393073	0.0393073	0.0393073	0.0393073
0.0393073	0.0393073	0.0393073	0.0393073	0.0393073
0.0393073	0.0393073	0.0393073	0.0393073	0.0393073
3.37308	4.46631	5.56933	6.61933	7.55651
8.32749	8.88838	9.20723	9.26589	9.061
8.60425	7.92164	7.05204	6.04498	4.95781
3.85244	2.79182	1.83635	1.04044	0.750099
0.749937	0.728607	0.687323	0.628436	0.555299
0.472077	0.38351	0.294642	0.210533	0.135974
0.0752094	0.0530473	0.0530473	0.0530473	0.0530473
0.0530473	0.0530473	0.0530473	0.0530473	0.0530473
0.0530473	0.0530473	0.0530473	0.0530473	0.0530473
0.0530473	0.0530473	0.0530473	0.0530473	0.0530473
1.63021	2.57391	3.63077	4.73138	5.80345
6.77659	7.58688	8.18111	8.52025	8.58203
8.3624	7.87577	7.15411	6.2448	5.20758
4.11055	3.02576	2.02445	1.17238	0.869836
0.895273	0.891568	0.858963	0.7996	0.717378
0.617696	0.5071	0.392855	0.282463	0.183173
0.101507	0.0716168	0.0716168	0.0716168	0.0716168
0.0716168	0.0716168	0.0716168	0.0716168	0.0716168
0.0716168	0.0716168	0.0716168	0.0716168	0.0716168
0.0716168	0.0716168	0.0716168	0.0716168	0.0716168
0.539537	1.21053	2.08958	3.11131	4.1997
5.2738	6.2537	7.06651	7.65177	7.96593
7.98563	7.70941	7.1578	6.37185	5.41002
4.34386	3.25268	2.21765	1.31577	1.00744
1.06983	1.09366	1.07713	1.02147	0.930842
0.81197	0.673702	0.526324	0.380797	0.247949
0.137661	0.097154	0.097154	0.097154	0.097154
0.097154	0.097154	0.097154	0.097154	0.097154
0.097154	0.097154	0.097154	0.097154	0.097154
0.097154	0.097154	0.097154	0.097154	0.097154
0.0492058	0.371523	0.974639	1.80844	2.80364
3.87755	4.94092	5.9054	6.69085	7.232
7.48387	7.42555	7.06188	6.42308	5.56223
4.55085	3.473	2.41823	1.47419	1.16866
1.28375	1.34932	1.35993	1.31468	1.21735
1.07601	0.902415	0.71099	0.517638	0.338427
0.188248	0.132895	0.132895	0.132895	0.132895
0.132895	0.132895	0.132895	0.132895	0.132895
0.132895	0.132895	0.132895	0.132895	0.132895
0.132895	0.132895	0.132895	0.132895	0.132895
0.0767514	0.0227651	0.289	0.851018	1.65723
2.63364	3.69061	4.73113	5.65969	6.39106
6.85809	7.01793	6.8559	6.38687	5.6539
4.72427	3.6833	2.62655	1.65102	1.36046
1.55043	1.6786	1.73319	1.70921	1.60884
1.4413	1.22198	0.970999	0.711398	0.467007
0.260258	0.183786	0.183786	0.183786	0.183786
0.183786	0.183786	0.183786	0.183786	0.183786
0.183786	0.183786	0.183786	0.183786	0.183786
0.183786	0.183786	0.183786	0.183786	0.183786
0.517793	0.109102	0.018457	0.254966	0.794866
1.58391	2.54281	3.57523	4.57743	5.44871
6.10153	6.4703	6.51796	6.23972	5.66354
4.84732	3.87306	2.83866	1.84804	1.59037
1.88678	2.10842	2.23299	2.248	2.15192
1.95441	1.67532	1.3427	0.989948	0.652524
0.364328	0.257354	0.257354	0.257354	0.257354
0.257354	0.257354	0.257354	0.257354	0.257354
0.257354	0.257354	0.257354	0.257354	0.257354
0.257354	0.257354	0.257354	0.257354	0.257354
1.24295	0.552757	0.132303	0.0274778	0.249724
0.774781	1.54534	2.47729	3.4689	4.41194
5.20347	5.7571	6.01238	5.94146	5.55208
4.88674	4.01807	3.04087	2.06183	1.86373
2.31099	2.67154	2.90604	2.98888	2.91104
2.68099	2.32385	1.87862	1.39387	0.922537
0.516054	0.364638	0.364638	0.364638	0.364638
0.364638	0.364638	0.364638	0.364638	0.364638
0.364638	0.364638	0.364638	0.364638	0.364638
0.364638	0.364638	0.364638	0.364638	0.364638
2.08065	1.23721	0.571005	0.160534	0.0541555
0.264404	0.766507	1.50131	2.38223	3.30548
4.16229	4.8517	5.29248	5.43271	5.25586
4.78277	4.06917	3.19915	2.27521	2.17545
2.83253	3.39612	3.79981	3.99605	3.96171
3.70084	3.24417	2.64551	1.9754	1.31278
0.735733	0.520015	0.520015	0.520015	0.520015
0.520015	0.520015	0.520015	0.520015	0.520015
0.520015	0.520015	0.520015	0.520015	0.520015
0.520015	0.520015	0.520015	0.520015	0.520015
2.78958	1.97275	1.21147	0.602042	0.221535
0.118078	0.304756	0.757959	1.42036	2.2082
3.02181	3.75829	4.32451	4.64884	4.69026
4.44353	3.93987	3.24297	2.44097	2.49015
3.42323	4.26918	4.921	5.29625	5.34747
5.06818	4.49371	3.6967	2.77798	1.85373
1.04085	0.735893	0.735893	0.735893	0.735893
0.735893	0.735893	0.735893	0.735893	0.735893
0.735893	0.735893	0.735893	0.735893	0.735893
0.735893	0.735893	0.735893	0.735893	0.735893
3.06268	2.4679	1.81551	1.19367	0.686407
0.362259	0.265029	0.407856	0.77144	1.30665
1.94117	2.58926	3.16334	3.58584	3.79967
3.77593	3.51784	3.06027	2.46504	2.71133
3.96069	5.15464	6.13186	6.76028	6.955
6.68971	6.00024	4.97978	3.7662	2.52349
1.41958	1.00396	1.00396	1.00396	1.00396
1.00396	1.00396	1.00396	1.00396	1.00396
1.00396	1.00396	1.00396	1.00396	1.00396
1.00396	1.00396	1.00396	1.00396	1.00396
2.68335	2.41907	2.04985	1.62876	1.21636
0.871924	0.644971	0.56813	0.652447	0.885801
1.23464	1.64883	2.0688	2.43419	2.69247
2.8065	2.7599	2.55935	2.2337	2.68225
4.19503	5.71856	7.03381	7.9517	8.34027
8.14365	7.39012	6.188	4.71012	3.16894
1.78603	1.26349	1.26349	1.26349	1.26349
1.26349	1.26349	1.26349	1.26349	1.26349
1.26349	1.26349	1.26349	1.26349	1.26349
1.26349	1.26349	1.26349	1.26349	1.26349
1.8488	1.8209	1.73804	1.61284	1.46439
1.3153	1.1883	1.10274	1.07166	1.09979
1.18285	1.30819	1.45669	1.60573	1.7326
1.81797	1.84881	1.82044	1.73718	2.309
3.90019	5.59204	7.12671	8.27034	8.84865
8.7735	8.05635	6.80648	5.21437	3.52265
1.98911	1.40758	1.40758	1.40758	1.40758
1.40758	1.40758	1.40758	1.40758	1.40758
1.40758	1.40758	1.40758	1.40758	1.40758
1.40758	1.40758	1.40758	1.40758	1.40758
1.14986	1.11678	1.131	1.19024	1.28495
1.39989	1.51655	1.61615	1.68264	1.70533
1.68056	1.61232	1.51159	1.3946	1.28018
1.18676	1.12937	1.11726	1.15237	1.71562
3.16049	4.78853	6.3376	7.55829	8.25406
8.31287	7.72525	6.58583	5.07805	3.4447
1.94875	1.37943	1.37943	1.37943	1.37943
1.37943	1.37943	1.37943	1.37943	1.37943
1.37943	1.37943	1.37943	1.37943	1.37943
1.37943	1.37943	1.37943	1.37943	1.37943
0.980627	0.756749	0.65672	0.697506	0.87219
1.15114	1.48705	1.82293	2.10181	2.27639
2.31706	2.21692	1.99295	1.68315	1.34006
1.02188	0.782571	0.662735	0.682695	1.13782
2.30947	3.71689	5.12135	6.28464	7.00943
7.17279	6.74701	5.8043	4.50457	3.06829
1.73906	1.23137	1.23137	1.23137	1.23137
1.23137	1.23137	1.23137	1.23137	1.23137
1.23137	1.23137	1.23137	1.23137	1.23137
1.23137	1.23137	1.23137	1.23137	1.23137
1.28176	0.828141	0.512598	0.391364	0.486045
0.779767	1.22018	1.7288	2.21498	2.59207
2.79286	2.78158	2.56023	2.16826	1.67552
1.16984	0.741339	0.466377	0.393961	0.706192
1.59313	2.73901	3.93961	4.98096	5.67746
5.905	5.62302	4.88177	3.81336	2.6082
1.48107	1.04901	1.04901	1.04901	1.04901
1.04901	1.04901	1.04901	1.04901	1.04901
1.04901	1.04901	1.04901	1.04901	1.04901
1.04901	1.04901	1.04901	1.04901	1.04901
1.81597	1.19054	0.661734	0.328337	0.252629
0.448754	0.880075	1.46602	2.09712	2.65549
3.03681	3.16986	3.02977	2.64272	2.08102
1.44958	0.86638	0.440356	0.251096	0.426817
1.07283	1.98205	2.98464	3.89329	4.53828
4.7991	4.62703	4.05422	3.18767	2.18926
1.24551	0.882431	0.882431	0.882431	0.882431
0.882431	0.882431	0.882431	0.882431	0.882431
0.882431	0.882431	0.882431	0.882431	0.882431
0.882431	0.882431	0.882431	0.882431	0.882431
2.39172	1.68359	0.995489	0.461875	0.187008
0.224594	0.56729	1.14814	1.85364	2.54596
3.08981	3.37894	3.35686	3.02787	2.45626
1.75372	1.05751	0.503667	0.200406	0.260172
0.718218	1.43406	2.26782	3.0566	3.64627
3.92163	3.82886	3.3861	2.67986	1.84812
1.0534	0.746549	0.746549	0.746549	0.746549
0.746549	0.746549	0.746549	0.746549	0.746549
0.746549	0.746549	0.746549	0.746549	0.746549
0.746549	0.746549	0.746549	0.746549	0.746549
2.90199	2.19675	1.41847	0.725895	0.260283
0.116597	0.324144	0.840594	1.56061	2.33734
3.01236	3.44799	3.55539	3.31264	2.76926
2.03608	1.26264	0.606676	0.201993	0.167238
0.482238	1.04535	1.74173	2.42934	2.96793
3.24766	3.21147	2.86674	2.28378	1.5815
0.903126	0.640237	0.640237	0.640237	0.640237
0.640237	0.640237	0.640237	0.640237	0.640237
0.640237	0.640237	0.640237	0.640237	0.640237
0.640237	0.640237	0.640237	0.640237	0.640237
3.29866	2.66629	1.8648	1.06453	0.435541
0.111515	0.161311	0.574346	1.26284	2.08048
2.8535	3.41761	3.65292	3.50944	3.01766
2.28207	1.45903	0.723429	0.231608	0.120456
0.3265	0.769491	1.35528	1.95939	2.45341
2.73238	2.73699	2.46626	1.97775	1.37525
0.786822	0.557955	0.557955	0.557955	0.557955
0.557955	0.557955	0.557955	0.557955	0.557955
0.557955	0.557955	0.557955	0.557955	0.557955
0.557955	0.557955	0.557955	0.557955	0.557955
3.56646	3.05912	2.29263	1.43646	0.679871
0.190128	0.0754994	0.361326	0.98442	1.80703
2.64731	3.31948	3.67496	3.63516	3.20887
2.49034	1.63841	0.841417	0.275561	0.102313
0.224367	0.571983	1.06831	1.60363	2.0596
2.33541	2.37009	2.15597	1.74039	1.21523
0.696575	0.494106	0.494106	0.494106	0.494106
0.494106	0.494106	0.494106	0.494106	0.494106
0.494106	0.494106	0.494106	0.494106	0.494106
0.494106	0.494106	0.494106	0.494106	0.494106
3.70721	3.36037	2.67641	1.81238	0.966668
0.333458	0.0581457	0.203947	0.737384	1.53597
2.41634	3.17636	3.6415	3.70497	3.3522
2.66418	1.79889	0.955024	0.326331	0.102043
0.15829	0.429032	0.852105	1.33036	1.75399
2.02573	2.08316	1.91312	1.55464	1.09004
0.625988	0.444169	0.444169	0.444169	0.444169
0.444169	0.444169	0.444169	0.444169	0.444169
0.444169	0.444169	0.444169	0.444169	0.444169
0.444169	0.444169	0.444169	0.444169	0.444169
3.73131	3.5659	3.00123	2.17177	1.27505
0.524623	0.099199	0.100089	0.527081	1.27849
2.17537	3.00413	3.56742	3.73108	3.45614
2.80807	1.94122	1.06201	0.379829	0.11305
0.116842	0.324562	0.686742	1.11713	1.51323
1.78072	1.85589	1.72084	1.40774	0.991142
0.570262	0.40475	0.40475	0.40475	0.40475
0.40475	0.40475	0.40475	0.40475	0.40475
0.40475	0.40475	0.40475	0.40475	0.40475
0.40475	0.40475	0.40475	0.40475	0.40475
3.65344	3.67797	3.25919	2.50039	1.58875
0.749143	0.188665	0.0455703	0.355156	1.04106
1.93409	2.81396	3.46365	3.72288	3.52773
2.92632	2.06701	1.16176	0.433856	0.131265
0.0925434	0.247698	0.558456	0.948164	1.3207
1.58416	1.67356	1.56686	1.29037	0.912284
0.525876	0.373358	0.373358	0.373358	0.373358
0.373358	0.373358	0.373358	0.373358	0.373358
0.373358	0.373358	0.373358	0.373358	0.373358
0.373358	0.373358	0.373358	0.373358	0.373358
3.49019	3.70279	3.4472	2.78863	1.89515
0.994742	0.317181	0.0353627	0.221202	0.827277
1.69893	2.61373	3.33825	3.68759	3.57262
3.02267	2.17808	1.25437	0.487253	0.154145
0.0804365	0.191014	0.457659	0.81233	1.16452
1.42436	1.52555	1.44225	1.19574	0.848905
0.49026	0.348176	0.348176	0.348176	0.348176
0.348176	0.348176	0.348176	0.348176	0.348176
0.348176	0.348176	0.348176	0.348176	0.348176
0.348176	0.348176	0.348176	0.348176	0.348176
3.25869	3.64897	3.5655	3.03029	2.18447
1.25107	0.476195	0.0641803	0.123663	0.638958
1.47419	2.40913	3.19724	3.63072	3.59526
3.10022	2.27612	1.34027	0.539441	0.180081
0.0771865	0.149367	0.37759	0.701676	1.03617
1.29287	1.4041	1.34051	1.11889	0.797657
0.461528	0.327869	0.327869	0.327869	0.327869
0.327869	0.327869	0.327869	0.327869	0.327869
0.327869	0.327869	0.327869	0.327869	0.327869
0.327869	0.327869	0.327869	0.327869	0.327869
2.97585	3.52658	3.61675	3.22183	2.44929
1.5094	0.657984	0.126769	0.0603406	0.476779
1.26274	2.2043	3.0452	3.55656	3.5992
3.16152	2.36264	1.42	0.590157	0.208048
0.0805171	0.119143	0.313413	0.610451	0.929411
1.18348	1.30351	1.25682	1.05613	0.756064
0.438283	0.311449	0.311449	0.311449	0.311449
0.311449	0.311449	0.311449	0.311449	0.311449
0.311449	0.311449	0.311449	0.311449	0.311449
0.311449	0.311449	0.311449	0.311449	0.311449
2.6578	3.34648	3.60534	3.36174	2.68405
1.76245	0.855617	0.218048	0.028688	0.340681
1.06646	2.00234	2.88565	3.46848	3.58725
3.20864	2.4389	1.49407	0.639315	0.237385
0.0888523	0.0977648	0.261621	0.534432	0.839633
1.09156	1.21952	1.18759	1.00473	0.722272
0.41948	0.298177	0.298177	0.298177	0.298177
0.298177	0.298177	0.298177	0.298177	0.298177
0.298177	0.298177	0.298177	0.298177	0.298177
0.298177	0.298177	0.298177	0.298177	0.298177
2.31955	3.11982	3.53691	3.45021	2.8848
2.00416	1.0629	0.333176	0.0259751	0.230119
0.886582	1.80556	2.72135	3.36916	3.56169
3.24328	2.50598	1.56298	0.686923	0.267665
0.101088	0.0833698	0.219632	0.470478	0.763379
1.01365	1.14893	1.1301	0.962605	0.69488
0.404328	0.287493	0.287493	0.287493	0.287493
0.287493	0.287493	0.287493	0.287493	0.287493
0.287493	0.287493	0.287493	0.287493	0.287493
0.287493	0.287493	0.287493	0.287493	0.287493
1.97475	2.85773	3.41795	3.48871	3.04895
2.22953	1.27432	0.467579	0.0493922	0.144212
0.723819	1.61573	2.5545	3.26077	3.52435
3.2668	2.56477	1.62717	0.733039	0.298615
0.116444	0.0745963	0.185526	0.41622	0.698025
0.947077	1.08926	1.08226	0.928156	0.672816
0.392224	0.27897	0.27897	0.27897	0.27897
0.27897	0.27897	0.27897	0.27897	0.27897
0.27897	0.27897	0.27897	0.27897	0.27897
0.27897	0.27897	0.27897	0.27897	0.27897
1.63554	2.57097	3.25556	3.47979	3.17503
2.43456	1.485	0.616966	0.0961124	0.0818525
0.57855	1.43419	2.3869	3.14511	3.47676
3.28036	2.616	1.68702	0.777741	0.330061
0.134364	0.0704392	0.157852	0.369849	0.641549
0.889797	1.03862	1.04246	0.900157	0.655252
0.382702	0.272279	0.272279	0.272279	0.272279
0.272279	0.272279	0.272279	0.272279	0.272279
0.272279	0.272279	0.272279	0.272279	0.272279
0.272279	0.272279	0.272279	0.272279	0.272279
1.31241	2.26978	3.05711	3.4268	3.26258
2.6161	1.69066	0.777329	0.163331	0.0417716
0.450879	1.26199	2.22002	3.02366	3.42018
3.28487	2.66029	1.74286	0.821114	0.361897
0.15445	0.0701505	0.135509	0.329971	0.592379
0.840207	0.995514	1.00946	0.877649	0.641545
0.375399	0.267163	0.267163	0.267163	0.267163
0.267163	0.267163	0.267163	0.267163	0.267163
0.267163	0.267163	0.267163	0.267163	0.267163
0.267163	0.267163	0.267163	0.267163	0.267163
1.01419	1.96367	2.83014	3.33379	3.31198
2.77175	1.88756	0.944942	0.248294	0.0225868
0.340708	1.09993	2.05507	2.89768	3.35567
3.28113	2.69813	1.79495	0.86324	0.394057
0.17642	0.0731714	0.117652	0.295498	0.549278
0.797038	0.958769	0.982242	0.859879	0.631192
0.370034	0.263424	0.263424	0.263424	0.263424
0.263424	0.263424	0.263424	0.263424	0.263424
0.263424	0.263424	0.263424	0.263424	0.263424
0.263424	0.263424	0.263424	0.263424	0.263424
0.748025	1.6613	2.58207	3.20524	3.32432
2.89985	2.07247	1.11636	0.348312	0.0228354
0.247776	0.948598	1.89308	2.76826	3.28415
3.26979	2.72995	1.84351	0.904195	0.426508
0.200073	0.0790833	0.103628	0.265575	0.511262
0.759278	0.927443	0.960033	0.84625	0.623796
0.366383	0.260904	0.260904	0.260904	0.260904
0.260904	0.260904	0.260904	0.260904	0.260904
0.260904	0.260904	0.260904	0.260904	0.260904
0.260904	0.260904	0.260904	0.260904	0.260904
0.519391	1.37038	2.32016	3.04602	3.30133
2.99934	2.24267	1.2884	0.460776	0.0409982
0.171695	0.808459	1.73494	2.63633	3.20638
3.2514	2.75608	1.88873	0.944045	0.459233
0.225269	0.0875739	0.0929324	0.239524	0.47754
0.726111	0.900778	0.942194	0.836288	0.619043
0.364273	0.259479	0.259479	0.259479	0.259479
0.259479	0.259479	0.259479	0.259479	0.259479
0.259479	0.259479	0.259479	0.259479	0.259479
0.259479	0.259479	0.259479	0.259479	0.259479
0.332171	1.09764	2.05132	2.86118	3.24523
3.06975	2.39585	1.45816	0.583164	0.075517
0.111971	0.679835	1.58139	2.50273	3.12307
3.22642	2.7768	1.93074	0.982842	0.492228
0.251912	0.0984119	0.0851731	0.216805	0.447476
0.696872	0.878159	0.928215	0.829614	0.616685
0.363566	0.259053	0.259053	0.259053	0.259053
0.259053	0.259053	0.259053	0.259053	0.259053
0.259053	0.259053	0.259053	0.259053	0.259053
0.259053	0.259053	0.259053	0.259053	0.259053
0.188718	0.848715	1.78204	2.6559	3.15869
3.11113	2.53018	1.62299	0.713048	0.124808
0.0680247	0.562946	1.4331	2.3682	3.03482
3.19527	2.79232	1.96966	1.02063	0.525497
0.279941	0.111429	0.0800474	0.196987	0.420549
0.671018	0.859082	0.917683	0.825925	0.616526
0.364153	0.25955	0.25955	0.25955	0.25955
0.25955	0.25955	0.25955	0.25955	0.25955
0.25955	0.25955	0.25955	0.25955	0.25955
0.25955	0.25955	0.25955	0.25955	0.25955
0.089963	0.628208	1.51828	2.43535	3.04471
3.12397	2.6442	1.78051	0.8481	0.187271
0.0391987	0.457923	1.29063	2.2334	2.94218
3.15827	2.80282	2.00555	1.05744	0.559046
0.30932	0.126505	0.0773229	0.179722	0.396331
0.648096	0.843133	0.910259	0.824978	0.618412
0.365952	0.26091	0.26091	0.26091	0.26091
0.26091	0.26091	0.26091	0.26091	0.26091
0.26091	0.26091	0.26091	0.26091	0.26091
0.26091	0.26091	0.26091	0.26091	0.26091
0.0355286	0.439643	1.26544	2.20463	2.90656
3.10918	2.73685	1.92856	0.986095	0.2613
0.0247728	0.364819	1.15449	2.09896	2.84563
3.11574	2.80845	2.03847	1.09327	0.592881
0.34003	0.143561	0.0768237	0.164734	0.374471
0.627732	0.829965	0.905668	0.826579	0.622224
0.368897	0.263089	0.263089	0.263089	0.263089
0.263089	0.263089	0.263089	0.263089	0.263089
0.263089	0.263089	0.263089	0.263089	0.263089
0.263089	0.263089	0.263089	0.263089	0.263089
0.0238569	0.285502	1.02828	1.96867	2.74772
3.06806	2.80741	2.06527	1.12492	0.345284
0.0239691	0.283617	1.02512	1.96544	2.74565
3.06794	2.80929	2.06843	1.12815	0.627007
0.372067	0.162546	0.0784199	0.1518	0.354676
0.609609	0.81929	0.903683	0.830573	0.627867
0.37294	0.266052	0.266052	0.266052	0.266052
0.266052	0.266052	0.266052	0.266052	0.266052
0.266052	0.266052	0.266052	0.266052	0.266052
0.266052	0.266052	0.266052	0.266052	0.266052
0.0523483	0.167258	0.810894	1.7322	2.5718
3.0022	2.85552	2.18897	1.26255	0.437621
0.035958	0.214237	0.902918	1.83337	2.64266
3.01511	2.80544	2.09544	1.16205	0.661425
0.405437	0.183437	0.0820191	0.140743	0.336702
0.59346	0.810865	0.904115	0.836837	0.635272
0.378045	0.269776	0.269776	0.269776	0.269776
0.269776	0.269776	0.269776	0.269776	0.269776
0.269776	0.269776	0.269776	0.269776	0.269776
0.269776	0.269776	0.269776	0.269776	0.269776
0.117505	0.0854203	0.616682	1.49963	2.38249
2.91351	2.88113	2.29826	1.39711	0.536712
0.0598622	0.156542	0.788233	1.70326	2.53707
2.95746	2.79694	2.11946	1.19495	0.696132
0.440153	0.206229	0.0875605	0.131425	0.320347
0.579057	0.804483	0.906811	0.845273	0.644387
0.384188	0.274241	0.274241	0.274241	0.274241
0.274241	0.274241	0.274241	0.274241	0.274241
0.274241	0.274241	0.274241	0.274241	0.274241
0.274241	0.274241	0.274241	0.274241	0.274241
0.215079	0.0395963	0.448343	1.27506	2.18348
2.8041	2.88449	2.39194	1.52681	0.640974
0.0947603	0.110338	0.681371	1.57559	2.42927
2.89518	2.78381	2.14045	1.2268	0.731117
0.476229	0.230935	0.0950093	0.12374	0.30544
0.566203	0.799964	0.91164	0.855807	0.655174
0.391351	0.279438	0.279438	0.279438	0.279438
0.279438	0.279438	0.279438	0.279438	0.279438
0.279438	0.279438	0.279438	0.279438	0.279438
0.279438	0.279438	0.279438	0.279438	0.279438
0.340221	0.0285581	0.307863	1.0622	1.97847
2.67633	2.86613	2.46907	1.64998	0.748838
0.139689	0.0753795	0.582604	1.45082	2.31966
2.82847	2.76607	2.15835	1.25756	0.76636
0.513681	0.257578	0.104353	0.117608	0.29184
0.554729	0.797156	0.918494	0.868377	0.66761
0.399525	0.285361	0.285361	0.285361	0.285361
0.285361	0.285361	0.285361	0.285361	0.285361
0.285361	0.285361	0.285361	0.285361	0.285361
0.285361	0.285361	0.285361	0.285361	0.285361
0.487633	0.0503188	0.196526	0.864351	1.77104
2.53269	2.82684	2.52893	1.7651	0.858757
0.193643	0.0513672	0.492169	1.32941	2.20861
2.75751	2.74371	2.17305	1.28715	0.801832
0.552525	0.286193	0.115599	0.112973	0.279427
0.544485	0.795921	0.927278	0.882939	0.681677
0.408707	0.292007	0.292007	0.292007	0.292007
0.292007	0.292007	0.292007	0.292007	0.292007
0.292007	0.292007	0.292007	0.292007	0.292007
0.292007	0.292007	0.292007	0.292007	0.292007
0.65171	0.102215	0.114925	0.684352	1.56467
2.37584	2.76767	2.57101	1.87075	0.969206
0.25558	0.0379498	0.410268	1.2118	2.09652
2.68249	2.71673	2.18447	1.31549	0.837492
0.592771	0.316819	0.128768	0.1098	0.268105
0.53534	0.796139	0.937911	0.899454	0.697368
0.418897	0.299378	0.299378	0.299378	0.299378
0.299378	0.299378	0.299378	0.299378	0.299378
0.299378	0.299378	0.299378	0.299378	0.299378
0.299378	0.299378	0.299378	0.299378	0.299378
0.826688	0.180997	0.0629856	0.524581	1.36268
2.2085	2.68989	2.59503	1.96565	1.07869
0.324419	0.0347218	0.337067	1.09842	1.98378
2.60358	2.68511	2.19248	1.34247	0.873285
0.63442	0.349501	0.143896	0.108071	0.257791
0.527177	0.797697	0.95032	0.917892	0.714679
0.430099	0.307476	0.307476	0.307476	0.307476
0.307476	0.307476	0.307476	0.307476	0.307476
0.307476	0.307476	0.307476	0.307476	0.307476
0.307476	0.307476	0.307476	0.307476	0.307476
1.00679	0.282917	0.0399937	0.386918	1.16816
2.0335	2.595	2.60094	2.04866	1.18575
0.399041	0.0412224	0.2727	0.989703	1.8708
2.521	2.64881	2.19695	1.36797	0.90914
0.677466	0.384284	0.161028	0.107784	0.248419
0.519889	0.800493	0.964437	0.938225	0.733609
0.442316	0.316306	0.316306	0.316306	0.316306
0.316306	0.316306	0.316306	0.316306	0.316306
0.316306	0.316306	0.316306	0.316306	0.316306
0.316306	0.316306	0.316306	0.316306	0.316306
1.18633	0.403832	0.0446327	0.272735	0.983994
1.85366	2.48467	2.58891	2.11879	1.28896
0.478294	0.0569335	0.217259	0.88607	1.758
2.43495	2.60783	2.19771	1.39185	0.944971
0.721888	0.42121	0.18022	0.108949	0.239937
0.513379	0.804426	0.980193	0.960428	0.754155
0.455555	0.325871	0.325871	0.325871	0.325871
0.325871	0.325871	0.325871	0.325871	0.325871
0.325871	0.325871	0.325871	0.325871	0.325871
0.325871	0.325871	0.325871	0.325871	0.325871
1.3599	0.539301	0.0750259	0.182891	0.812756
1.67183	2.36077	2.55932	2.17519	1.38694
0.560989	0.0812763	0.170799	0.787942	1.64583
2.34567	2.56214	2.19462	1.41395	0.980669
0.76765	0.460316	0.20153	0.11159	0.232304
0.507558	0.809401	0.99752	0.984469	0.776315
0.469818	0.336175	0.336175	0.336175	0.336175
0.336175	0.336175	0.336175	0.336175	0.336175
0.336175	0.336175	0.336175	0.336175	0.336175
0.336175	0.336175	0.336175	0.336175	0.336175
1.52242	0.684688	0.128786	0.117721	0.656729
1.4908	2.22532	2.51279	2.2172	1.47839
0.64591	0.11361	0.133326	0.695732	1.53475
2.25342	2.51175	2.18751	1.4341	1.01611
0.814694	0.501627	0.225021	0.115741	0.225488
0.502341	0.815317	1.01634	1.01031	0.800079
0.485104	0.347218	0.347218	0.347218	0.347218
0.347218	0.347218	0.347218	0.347218	0.347218
0.347218	0.347218	0.347218	0.347218	0.347218
0.347218	0.347218	0.347218	0.347218	0.347218
1.66932	0.835267	0.203071	0.0770424	0.517847
1.3133	2.0805	2.45014	2.2443	1.56205
0.731814	0.153226	0.104799	0.609845	1.42525
2.15852	2.45667	2.17619	1.4521	1.05113
0.86294	0.545157	0.250753	0.121441	0.219469
0.497648	0.822075	1.03658	1.03791	0.825428
0.50141	0.358998	0.358998	0.358998	0.358998
0.358998	0.358998	0.358998	0.358998	0.358998
0.358998	0.358998	0.358998	0.358998	0.358998
0.358998	0.358998	0.358998	0.358998	0.358998
1.79656	0.98633	0.294647	0.0601616	0.397678
1.14195	1.92857	2.37242	2.25617	1.63676
0.817434	0.199349	0.0851199	0.530673	1.31786
2.06128	2.39694	2.16051	1.46774	1.08556
0.912276	0.5909	0.278783	0.12874	0.214232
0.493401	0.829566	1.05814	1.06721	0.852336
0.518722	0.371505	0.371505	0.371505	0.371505
0.371505	0.371505	0.371505	0.371505	0.371505
0.371505	0.371505	0.371505	0.371505	0.371505
0.371505	0.371505	0.371505	0.371505	0.371505
1.90081	1.1333	0.399962	0.0658889	0.297388
0.979212	1.77192	2.28088	2.25271	1.70143
0.901494	0.251135	0.074127	0.458591	1.21313
1.9621	2.33264	2.14029	1.48079	1.1192
0.962562	0.638826	0.309162	0.137688	0.209771
0.489524	0.837677	1.08091	1.09812	0.880757
0.537021	0.384727	0.384727	0.384727	0.384727
0.384727	0.384727	0.384727	0.384727	0.384727
0.384727	0.384727	0.384727	0.384727	0.384727
0.384727	0.384727	0.384727	0.384727	0.384727
1.97946	1.27182	0.51522	0.0925604	0.217727
0.827378	1.61299	2.17701	2.234	1.75512
0.982712	0.307666	0.0715896	0.393952	1.11162
1.86141	2.26388	2.11537	1.49102	1.15181
1.01362	0.688877	0.341925	0.14834	0.206086
0.485942	0.846283	1.10476	1.13056	0.910631
0.556273	0.398639	0.398639	0.398639	0.398639
0.398639	0.398639	0.398639	0.398639	0.398639
0.398639	0.398639	0.398639	0.398639	0.398639
0.398639	0.398639	0.398639	0.398639	0.398639
2.03075	1.39788	0.636467	0.138069	0.159001
0.6885	1.45426	2.06247	2.20035	1.79698