<VTKFile type="RectilinearGrid" version="0.1" format="ascii">
<RectilinearGrid WholeExtent = "1 11 1 11 1 76">
<Piece Extent =  "1 11 1 11 1 76">
<Coordinates>
<DataArray type="Float64" Name ="X_COORDINATES" NumberOfComponents="1" format="ascii">
0	100	200	300	400	
500	600	700	800	900	
1000	
</DataArray>
<DataArray type="Float64" Name ="Y_COORDINATES" NumberOfComponents="1" format="ascii">
0	60	120	180	240	
300	360	420	480	540	
600	
</DataArray>
<DataArray type="Float64" Name ="Z_COORDINATES" NumberOfComponents ="1" format="ascii">
-10	0	1.25	2.5	3.75	
5	7	9	11	13	
14	15	16	17	17.5	
18	18.5	19	19.5	20	
20.5	21	21.5	22	22.5	
23	23.5	24	24.5	25	
27.3999996185	29.7999992371	32.2000007629	34.5999984741	37	
38	39	40	41	42	
43	44	45	46	47	
48	49	50	52.5	55	
57.5	60	62.5	65	67.5	
70	72.5	75	78.75	82.5	
86.25	90	104.285667419	118.571334839	132.856994629	
147.142669678	161.428329468	175.714004517	190	206.666671753	
223.333328247	240	256.666656494	273.333343506	290	
300	
</DataArray>
</Coordinates>
<PointData>
<DataArray type="Float64" Name="Gamma[eV]" NumberOfComponents="1" format="ascii">
0	0	0	0	0	
0	0	0	0	0	
0	0	0	0	0	
0	0	0	0	0	
0	0	0	0	0	
0	0	0	0	0	
0	0	0	0	0	
0	0	0	0	0	
0	0	0	0	0	
0	0	0	0	0	
0	0	0	0	0	
0	0	0	0	0	
0	0	0	0	0	
0	0	0	0	0	
0	0	0	0	0	
0	0	0	0	0	
0	0	0	0	0	
0	0	0	0	0	
0	0	0	0	0	
0	0	0	0	0	
0	0	0	0	0	
0	0	0	0	0	
0	0	0	0	0	
0	0	0	0	0	
0	0.0666666666667	0.0666666666667	0.0666666666667	0.0666666666667	
0.0666666666667	0.0666666666667	0.0666666666667	0.0666666666667	0.0666666666667	
0.0666666666667	0.0666666666667	0.0666666666667	0.0666666666667	0.0666666666667	
0.0666666666667	0.0666666666667	0.0666666666667	0.0666666666667	0.0666666666667	
0.0666666666667	0.0666666666667	0.0666666666667	0.0666666666667	0.0666666666667	
0.0666666666667	0.0666666666667	0.0666666666667	0.0666666666667	0.0666666666667	
0.0666666666667	0.0666666666667	0.0666666666667	0.0666666666667	0.0666666666667	
0.0666666666667	0.0666666666667	0.0666666666667	0.0666666666667	0.0666666666667	
0.0666666666667	0.0666666666667	0.0666666666667	0.0666666666667	0.0666666666667	
0.0666666666667	0.0666666666667	0.0666666666667	0.0666666666667	0.0666666666667	
0.0666666666667	0.0666666666667	0.0666666666667	0.0666666666667	0.0666666666667	
0.0666666666667	0.0666666666667	0.0666666666667	0.0666666666667	0.0666666666667	
0.0666666666667	0.0666666666667	0.0666666666667	0.0666666666667	0.0666666666667	
0.0666666666667	0.0666666666667	0.0666666666667	0.0666666666667	0.0666666666667	
0.0666666666667	0.0666666666667	0.0666666666667	0.0666666666667	0.0666666666667	
0.0666666666667	0.0666666666667	0.0666666666667	0.0666666666667	0.0666666666667	
0.0666666666667	0.0666666666667	0.0666666666667	0.0666666666667	0.0666666666667	
0.0666666666667	0.0666666666667	0.0666666666667	0.0666666666667	0.0666666666667	
0.0666666666667	0.0666666666667	0.0666666666667	0.0666666666667	0.0666666666667	
0.0666666666667	0.0666666666667	0.0666666666667	0.0666666666667	0.0666666666667	
0.0666666666667	0.0666666666667	0.0666666666667	0.0666666666667	0.0666666666667	
0.0666666666667	0.0666666666667	0.0666666666667	0.0666666666667	0.0666666666667	
0.0666666666667	0.0666666666667	0.0666666666667	0.0666666666667	0.0666666666667	
0.0666666666667	0.0666666666667	0.0666666666667	0.0666666666667	0.0666666666667	
0.0666666666667	0.0666666666667	0.561329409778	0.561329409773	0.561329409778	
0.561329409777	0.561329409778	0.561329409778	0.561329409777	0.561329409776	
0.561329409779	0.56132940978	0.561329409781	0.561329409772	0.561329409775	
0.561329409779	0.561329409776	0.561329409776	0.561329409779	0.561329409779	
0.561329409778	0.561329409779	0.561329409782	0.561329409787	0.561329409771	
0.561329409773	0.561329409779	0.56132940978	0.561329409778	0.561329409777	
0.561329409776	0.561329409775	0.56132940978	0.561329409782	0.561329409786	
0.561329409778	0.561329409776	0.56132940978	0.561329409781	0.56132940978	
0.56132940978	0.56132940978	0.56132940978	0.561329409783	0.561329409782	
0.561329409787	0.561329409776	0.561329409777	0.56132940978	0.56132940978	
0.561329409777	0.561329409779	0.56132940978	0.561329409779	0.561329409783	
0.561329409782	0.561329409787	0.56132940978	0.561329409781	0.561329409783	
0.561329409783	0.561329409781	0.561329409783	0.561329409784	0.561329409783	
0.561329409785	0.561329409784	0.561329409791	0.561329409781	0.561329409783	
0.561329409784	0.561329409784	0.561329409782	0.561329409785	0.561329409787	
0.561329409786	0.561329409787	0.561329409786	0.561329409793	0.561329409779	
0.56132940978	0.56132940978	0.561329409782	0.561329409781	0.561329409784	
0.561329409785	0.561329409784	0.561329409786	0.561329409784	0.56132940979	
0.561329409777	0.561329409777	0.561329409779	0.561329409782	0.561329409782	
0.561329409782	0.561329409782	0.561329409782	0.561329409786	0.561329409784	
0.56132940979	0.561329409779	0.561329409781	0.561329409782	0.561329409786	
0.561329409785	0.561329409787	0.561329409789	0.561329409788	0.56132940979	
0.56132940979	0.561329409793	0.561329409776	0.56132940978	0.561329409787	
0.561329409785	0.561329409785	0.561329409788	0.56132940979	0.561329409789	
0.561329409793	0.561329409792	0.561329409797	0.522658819557	0.522658819546	
0.522658819556	0.522658819555	0.522658819557	0.522658819556	0.522658819554	
0.522658819553	0.522658819557	0.52265881956	0.522658819562	0.522658819543	
0.52265881955	0.522658819558	0.522658819552	0.522658819552	0.522658819557	
0.522658819558	0.522658819555	0.522658819557	0.522658819563	0.522658819574	
0.522658819542	0.522658819545	0.522658819557	0.52265881956	0.522658819555	
0.522658819553	0.522658819552	0.52265881955	0.522658819559	0.522658819564	
0.522658819571	0.522658819555	0.522658819551	0.522658819559	0.522658819562	
0.522658819559	0.522658819559	0.522658819559	0.52265881956	0.522658819566	
0.522658819563	0.522658819573	0.522658819552	0.522658819552	0.522658819559	
0.522658819559	0.522658819554	0.522658819557	0.522658819558	0.522658819557	
0.522658819564	0.522658819563	0.522658819573	0.52265881956	0.522658819561	
0.522658819566	0.522658819564	0.52265881956	0.522658819564	0.522658819567	
0.522658819565	0.522658819569	0.522658819567	0.522658819581	0.522658819562	
0.522658819565	0.522658819566	0.522658819566	0.522658819564	0.52265881957	
0.522658819572	0.52265881957	0.522658819574	0.522658819571	0.522658819584	
0.522658819557	0.52265881956	0.52265881956	0.522658819563	0.522658819562	
0.522658819566	0.522658819568	0.522658819566	0.522658819571	0.522658819567	
0.522658819579	0.522658819553	0.522658819552	0.522658819556	0.522658819563	
0.522658819562	0.522658819564	0.522658819564	0.522658819564	0.522658819571	
0.522658819568	0.522658819578	0.522658819558	0.522658819561	0.522658819564	
0.522658819571	0.522658819569	0.522658819574	0.522658819576	0.522658819574	
0.52265881958	0.52265881958	0.522658819585	0.522658819552	0.522658819558	
0.522658819573	0.522658819569	0.522658819569	0.522658819575	0.522658819578	
0.522658819576	0.522658819584	0.522658819583	0.522658819592	0.483988229336	
0.483988229319	0.483988229334	0.483988229333	0.483988229335	0.483988229334	
0.483988229332	0.48398822933	0.483988229337	0.483988229341	0.483988229343	
0.483988229315	0.483988229324	0.483988229337	0.483988229328	0.483988229327	
0.483988229335	0.483988229337	0.483988229332	0.483988229336	0.483988229345	
0.48398822936	0.483988229314	0.483988229318	0.483988229335	0.483988229339	
0.483988229331	0.483988229329	0.483988229327	0.483988229324	0.483988229338	
0.483988229345	0.483988229356	0.483988229333	0.483988229327	0.483988229338	
0.483988229342	0.483988229337	0.483988229337	0.483988229338	0.483988229339	
0.483988229348	0.483988229344	0.483988229359	0.483988229328	0.483988229328	
0.483988229338	0.483988229338	0.483988229329	0.483988229334	0.483988229336	
0.483988229334	0.483988229346	0.483988229344	0.483988229358	0.48398822934	
0.48398822934	0.483988229348	0.483988229346	0.483988229339	0.483988229346	
0.483988229349	0.483988229346	0.483988229353	0.48398822935	0.483988229369	
0.483988229343	0.483988229346	0.483988229349	0.483988229348	0.483988229345	
0.483988229354	0.483988229358	0.483988229355	0.48398822936	0.483988229355	
0.483988229375	0.483988229335	0.483988229339	0.483988229339	0.483988229344	
0.483988229342	0.483988229349	0.483988229351	0.483988229349	0.483988229356	
0.48398822935	0.483988229367	0.48398822933	0.483988229328	0.483988229334	
0.483988229344	0.483988229342	0.483988229345	0.483988229345	0.483988229345	
0.483988229355	0.483988229351	0.483988229366	0.483988229337	0.483988229341	
0.483988229345	0.483988229355	0.483988229353	0.48398822936	0.483988229364	
0.483988229361	0.483988229369	0.483988229369	0.483988229377	0.483988229326	
0.483988229335	0.483988229358	0.483988229352	0.483988229351	0.48398822936	
0.483988229365	0.483988229362	0.483988229374	0.483988229372	0.483988229384	
0.617028976782	0.617028976759	0.617028976779	0.617028976777	0.617028976781	
0.617028976779	0.617028976776	0.617028976773	0.617028976783	0.617028976788	
0.617028976791	0.617028976754	0.617028976766	0.617028976783	0.617028976771	
0.61702897677	0.61702897678	0.617028976783	0.617028976776	0.617028976781	
0.617028976793	0.617028976812	0.617028976751	0.617028976756	0.617028976779	
0.617028976784	0.617028976774	0.617028976771	0.617028976768	0.617028976764	
0.617028976783	0.617028976793	0.617028976806	0.617028976777	0.617028976768	
0.617028976782	0.617028976789	0.617028976781	0.617028976782	0.617028976783	
0.617028976784	0.617028976796	0.617028976791	0.61702897681	0.617028976771	
0.61702897677	0.617028976783	0.617028976782	0.617028976771	0.617028976777	
0.617028976781	0.617028976778	0.617028976793	0.617028976791	0.617028976809	
0.617028976786	0.617028976786	0.617028976796	0.617028976793	0.617028976784	
0.617028976793	0.617028976797	0.617028976793	0.617028976803	0.617028976799	
0.617028976824	0.61702897679	0.617028976794	0.617028976797	0.617028976797	
0.617028976792	0.617028976803	0.617028976809	0.617028976805	0.617028976812	
0.617028976806	0.617028976831	0.617028976779	0.617028976784	0.617028976784	
0.61702897679	0.617028976788	0.617028976797	0.6170289768	0.617028976797	
0.617028976806	0.617028976799	0.61702897682	0.617028976773	0.61702897677	
0.617028976777	0.61702897679	0.617028976789	0.617028976792	0.617028976792	
0.617028976792	0.617028976806	0.6170289768	0.617028976819	0.617028976782	
0.617028976786	0.617028976792	0.617028976805	0.617028976802	0.617028976812	
0.617028976817	0.617028976813	0.617028976823	0.617028976823	0.617028976833	
0.617028976767	0.617028976777	0.617028976807	0.617028976799	0.617028976799	
0.617028976811	0.617028976816	0.617028976813	0.61702897683	0.617028976826	
0.617028976841	0.657751945653	0.65775194562	0.657751945649	0.657751945646	
0.657751945651	0.657751945648	0.657751945644	0.65775194564	0.657751945653	
0.657751945661	0.657751945665	0.657751945614	0.65775194563	0.657751945653	
0.657751945635	0.657751945634	0.657751945648	0.657751945653	0.657751945642	
0.657751945649	0.657751945667	0.657751945692	0.657751945608	0.657751945613	
0.657751945644	0.657751945652	0.657751945638	0.657751945634	0.657751945629	
0.657751945624	0.657751945651	0.657751945664	0.657751945681	0.657751945643	
0.657751945629	0.657751945649	0.657751945658	0.657751945648	0.657751945648	
0.657751945649	0.657751945651	0.657751945668	0.657751945661	0.657751945686	
0.657751945634	0.657751945631	0.657751945649	0.657751945649	0.657751945633	
0.657751945642	0.657751945646	0.657751945642	0.657751945664	0.657751945661	
0.657751945684	0.657751945657	0.657751945655	0.657751945668	0.657751945664	
0.657751945651	0.657751945664	0.65775194567	0.657751945664	0.657751945678	
0.657751945672	0.657751945705	0.657751945663	0.657751945666	0.65775194567	
0.657751945669	0.657751945662	0.657751945678	0.657751945687	0.65775194568	
0.657751945691	0.657751945682	0.657751945716	0.657751945647	0.657751945652	
0.657751945651	0.65775194566	0.657751945656	0.657751945669	0.657751945674	
0.657751945669	0.657751945683	0.657751945672	0.6577519457	0.657751945637	
0.657751945631	0.65775194564	0.65775194566	0.657751945657	0.657751945662	
0.657751945662	0.657751945662	0.657751945682	0.657751945673	0.657751945698	
0.65775194565	0.657751945654	0.657751945661	0.65775194568	0.657751945675	
0.657751945689	0.657751945696	0.657751945691	0.657751945706	0.657751945706	
0.657751945717	0.657751945626	0.657751945636	0.657751945679	0.657751945667	
0.657751945667	0.657751945684	0.657751945692	0.657751945687	0.657751945711	
0.657751945706	0.657751945724	0.591155328486	0.591155328443	0.591155328479	
0.591155328475	0.591155328482	0.591155328478	0.591155328473	0.591155328467	
0.591155328485	0.591155328495	0.591155328498	0.591155328435	0.591155328454	
0.591155328483	0.59115532846	0.591155328458	0.591155328476	0.591155328483	
0.591155328469	0.591155328478	0.5911553285	0.591155328531	0.591155328425	
0.591155328429	0.591155328469	0.591155328479	0.59115532846	0.591155328455	
0.591155328449	0.591155328441	0.591155328476	0.591155328494	0.591155328513	
0.59115532847	0.591155328449	0.591155328473	0.591155328485	0.591155328471	
0.591155328472	0.591155328474	0.591155328475	0.591155328498	0.591155328488	
0.591155328517	0.591155328458	0.591155328451	0.591155328473	0.591155328472	
0.591155328452	0.591155328463	0.591155328469	0.591155328464	0.591155328492	
0.591155328487	0.591155328514	0.591155328487	0.591155328481	0.591155328498	
0.591155328492	0.591155328475	0.591155328492	0.5911553285	0.591155328492	
0.59115532851	0.591155328502	0.591155328542	0.591155328494	0.591155328496	
0.5911553285	0.591155328499	0.59115532849	0.591155328511	0.591155328521	
0.591155328513	0.591155328527	0.591155328515	0.591155328556	0.591155328474	
0.591155328478	0.591155328476	0.591155328487	0.591155328482	0.591155328498	
0.591155328505	0.591155328499	0.591155328517	0.591155328502	0.591155328535	
0.591155328461	0.59115532845	0.591155328461	0.591155328486	0.591155328483	
0.591155328489	0.591155328489	0.591155328489	0.591155328515	0.591155328503	
0.591155328532	0.591155328476	0.591155328479	0.591155328487	0.591155328511	
0.591155328505	0.591155328523	0.591155328532	0.591155328526	0.591155328545	
0.591155328544	0.591155328555	0.591155328443	0.591155328451	0.591155328506	
0.59115532849	0.591155328489	0.591155328511	0.591155328522	0.591155328516	
0.591155328547	0.59115532854	0.591155328559	0.524558711323	0.524558711268	
0.524558711312	0.524558711307	0.524558711315	0.524558711311	0.524558711304	
0.524558711297	0.524558711319	0.524558711331	0.524558711333	0.52455871126	
0.524558711281	0.524558711316	0.524558711287	0.524558711284	0.524558711307	
0.524558711314	0.524558711298	0.524558711309	0.524558711335	0.52455871137	
0.524558711244	0.524558711246	0.524558711294	0.524558711306	0.524558711283	
0.524558711276	0.524558711269	0.52455871126	0.524558711302	0.524558711324	
0.524558711344	0.524558711298	0.524558711269	0.524558711298	0.524558711311	
0.524558711295	0.524558711296	0.524558711298	0.5245587113	0.524558711328	
0.524558711315	0.524558711347	0.524558711283	0.524558711271	0.524558711297	
0.524558711296	0.524558711271	0.524558711285	0.524558711292	0.524558711285	
0.52455871132	0.524558711314	0.524558711343	0.524558711318	0.524558711308	
0.524558711327	0.524558711319	0.5245587113	0.52455871132	0.52455871133	
0.52455871132	0.524558711342	0.524558711331	0.524558711376	0.524558711327	
0.524558711326	0.524558711329	0.524558711328	0.524558711317	0.524558711343	
0.524558711356	0.524558711346	0.524558711362	0.524558711347	0.524558711394	
0.524558711303	0.524558711304	0.5245587113	0.524558711313	0.524558711307	
0.524558711327	0.524558711336	0.524558711328	0.52455871135	0.524558711331	
0.524558711368	0.524558711287	0.52455871127	0.524558711282	0.524558711312	
0.524558711308	0.524558711315	0.524558711315	0.524558711315	0.524558711347	
0.524558711332	0.524558711364	0.524558711303	0.524558711302	0.524558711311	
0.524558711341	0.524558711333	0.524558711355	0.524558711367	0.524558711358	
0.524558711382	0.52455871138	0.52455871139	0.524558711258	0.524558711263	
0.524558711329	0.524558711309	0.524558711308	0.524558711335	0.524558711349	
0.524558711342	0.52455871138	0.52455871137	0.524558711387	0.721840998457	
0.72184099839	0.72184099844	0.721840998433	0.721840998443	0.721840998438	
0.72184099843	0.721840998422	0.721840998448	0.721840998461	0.721840998461	
0.721840998382	0.721840998402	0.721840998442	0.721840998408	0.721840998405	
0.721840998432	0.72184099844	0.72184099842	0.721840998433	0.721840998464	
0.721840998502	0.721840998359	0.721840998358	0.721840998412	0.721840998426	
0.721840998399	0.721840998391	0.721840998383	0.721840998372	0.721840998422	
0.721840998446	0.721840998466	0.72184099842	0.721840998383	0.721840998415	
0.721840998431	0.721840998412	0.721840998412	0.721840998415	0.721840998417	
0.72184099845	0.721840998434	0.721840998468	0.721840998402	0.721840998385	
0.721840998414	0.721840998412	0.721840998382	0.721840998399	0.721840998407	
0.721840998399	0.72184099844	0.721840998432	0.721840998462	0.721840998443	
0.721840998428	0.721840998449	0.72184099844	0.721840998416	0.72184099844	
0.721840998452	0.72184099844	0.721840998466	0.721840998452	0.721840998502	
0.721840998455	0.72184099845	0.721840998452	0.72184099845	0.721840998437	
0.721840998467	0.721840998482	0.721840998471	0.72184099849	0.72184099847	
0.721840998522	0.721840998425	0.721840998423	0.721840998417	0.721840998432	
0.721840998425	0.721840998449	0.721840998459	0.721840998449	0.721840998475	
0.721840998452	0.721840998491	0.721840998406	0.721840998382	0.721840998395	
0.72184099843	0.721840998425	0.721840998433	0.721840998434	0.721840998433	
0.721840998471	0.721840998452	0.721840998485	0.721840998423	0.721840998417	
0.721840998425	0.721840998461	0.721840998451	0.721840998478	0.721840998491	
0.721840998481	0.721840998509	0.721840998506	0.721840998513	0.721840998365	
0.721840998366	0.721840998441	0.721840998418	0.721840998417	0.721840998449	
0.721840998465	0.721840998456	0.721840998502	0.721840998489	0.721840998504	
1.20985232601	1.20985232593	1.20985232599	1.20985232598	1.20985232599	
1.20985232598	1.20985232598	1.20985232597	1.20985232599	1.20985232601	
1.20985232601	1.20985232592	1.20985232595	1.20985232599	1.20985232595	
1.20985232595	1.20985232598	1.20985232599	1.20985232596	1.20985232598	
1.20985232601	1.20985232605	1.2098523259	1.20985232589	1.20985232595	
1.20985232597	1.20985232594	1.20985232593	1.20985232592	1.20985232591	
1.20985232596	1.20985232599	1.20985232601	1.20985232596	1.20985232592	
1.20985232595	1.20985232597	1.20985232595	1.20985232595	1.20985232595	
1.20985232596	1.20985232599	1.20985232597	1.20985232601	1.20985232594	
1.20985232592	1.20985232595	1.20985232595	1.20985232592	1.20985232594	
1.20985232595	1.20985232594	1.20985232598	1.20985232597	1.209852326	
1.20985232599	1.20985232597	1.20985232599	1.20985232598	1.20985232596	
1.20985232598	1.20985232599	1.20985232598	1.20985232601	1.20985232599	
1.20985232604	1.209852326	1.20985232599	1.20985232599	1.20985232599	
1.20985232598	1.20985232601	1.20985232603	1.20985232601	1.20985232604	
1.20985232601	1.20985232607	1.20985232597	1.20985232596	1.20985232596	
1.20985232597	1.20985232596	1.20985232599	1.209852326	1.20985232599	
1.20985232602	1.20985232599	1.20985232603	1.20985232595	1.20985232592	
1.20985232593	1.20985232597	1.20985232596	1.20985232597	1.20985232597	
1.20985232597	1.20985232601	1.20985232599	1.20985232603	1.20985232596	
1.20985232595	1.20985232596	1.209852326	1.20985232599	1.20985232602	
1.20985232603	1.20985232602	1.20985232605	1.20985232605	1.20985232605	
1.2098523259	1.2098523259	1.20985232598	1.20985232595	1.20985232595	
1.20985232598	1.209852326	1.20985232599	1.20985232604	1.20985232603	
1.20985232604	0.634772026681	0.634772026598	0.634772026655	0.634772026647	
0.634772026659	0.634772026653	0.634772026643	0.634772026634	0.634772026664	
0.634772026678	0.634772026673	0.63477202659	0.634772026611	0.634772026657	
0.634772026615	0.634772026611	0.634772026643	0.634772026653	0.63477202663	
0.634772026645	0.634772026679	0.634772026719	0.634772026559	0.634772026554	
0.634772026617	0.634772026632	0.6347720266	0.634772026591	0.634772026581	
0.634772026568	0.634772026627	0.634772026653	0.634772026672	0.63477202663	
0.634772026581	0.634772026617	0.634772026636	0.634772026613	0.634772026614	
0.634772026617	0.634772026619	0.634772026658	0.634772026637	0.634772026672	
0.634772026608	0.634772026583	0.634772026615	0.634772026613	0.634772026578	
0.634772026597	0.634772026607	0.634772026597	0.634772026646	0.634772026633	
0.634772026664	0.634772026657	0.634772026633	0.634772026656	0.634772026645	
0.634772026617	0.634772026645	0.634772026659	0.634772026646	0.634772026676	
0.634772026657	0.63477202671	0.634772026669	0.634772026659	0.634772026659	
0.634772026657	0.634772026641	0.634772026677	0.634772026695	0.634772026681	
0.634772026704	0.634772026679	0.634772026735	0.634772026635	0.634772026628	
0.634772026618	0.634772026636	0.634772026627	0.634772026655	0.634772026667	
0.634772026655	0.634772026686	0.634772026656	0.634772026697	0.634772026611	
0.634772026577	0.63477202659	0.634772026631	0.634772026625	0.634772026635	
0.634772026635	0.634772026635	0.634772026679	0.634772026655	0.634772026688	
0.634772026626	0.634772026613	0.63477202662	0.634772026662	0.634772026651	
0.634772026682	0.634772026697	0.634772026685	0.634772026718	0.634772026713	
0.634772026714	0.634772026553	0.634772026547	0.634772026634	0.634772026606	
0.634772026604	0.634772026643	0.634772026662	0.634772026652	0.634772026705	
0.634772026688	0.634772026699	0.0685017362208	0.0685017361317	0.0685017361918	
0.0685017361835	0.0685017361959	0.0685017361896	0.0685017361793	0.0685017361696	
0.0685017362009	0.0685017362155	0.0685017362086	0.0685017361251	0.0685017361454	
0.0685017361932	0.0685017361494	0.0685017361451	0.0685017361787	0.0685017361895	
0.0685017361644	0.0685017361804	0.068501736216	0.0685017362566	0.0685017360908	
0.0685017360832	0.0685017361494	0.0685017361652	0.068501736131	0.0685017361213	
0.068501736111	0.0685017360968	0.0685017361595	0.0685017361867	0.0685017362044	
0.0685017361648	0.0685017361119	0.0685017361492	0.0685017361685	0.0685017361445	
0.068501736145	0.0685017361479	0.0685017361508	0.0685017361914	0.0685017361685	
0.0685017362039	0.0685017361416	0.0685017361131	0.0685017361461	0.0685017361441	
0.0685017361067	0.0685017361274	0.0685017361376	0.0685017361272	0.0685017361782	
0.0685017361646	0.0685017361956	0.0685017361924	0.0685017361659	0.0685017361893	
0.0685017361778	0.0685017361482	0.0685017361781	0.0685017361926	0.0685017361781	
0.0685017362101	0.0685017361893	0.068501736244	0.0685017362057	0.0685017361928	
0.0685017361928	0.06850173619	0.0685017361732	0.0685017362114	0.0685017362305	
0.0685017362154	0.0685017362394	0.0685017362122	0.0685017362695	0.0685017361692	
0.0685017361598	0.0685017361487	0.0685017361674	0.0685017361578	0.068501736188	
0.0685017362006	0.0685017361876	0.06850173622	0.0685017361883	0.0685017362297	
0.0685017361431	0.068501736105	0.0685017361184	0.0685017361621	0.068501736155	
0.0685017361659	0.068501736166	0.0685017361654	0.0685017362126	0.0685017361856	
0.0685017362192	0.0685017361569	0.0685017361414	0.0685017361485	0.0685017361923	
0.0685017361803	0.0685017362133	0.0685017362297	0.0685017362169	0.0685017362516	
0.0685017362451	0.0685017362447	0.0685017360784	0.0685017360706	0.0685017361621	
0.0685017361315	0.06850173613	0.0685017361705	0.068501736191	0.06850173618	
0.068501736237	0.0685017362172	0.0685017362268	0.130575571957	0.130575571861	
0.130575571924	0.130575571915	0.130575571928	0.130575571921	0.13057557191	
0.1305755719	0.130575571933	0.130575571948	0.130575571939	0.130575571855	
0.130575571875	0.130575571925	0.130575571879	0.130575571874	0.130575571909	
0.130575571921	0.130575571894	0.130575571911	0.130575571948	0.130575571989	
0.130575571818	0.130575571808	0.130575571877	0.130575571894	0.130575571857	
0.130575571847	0.130575571836	0.130575571821	0.130575571887	0.130575571915	
0.130575571932	0.130575571895	0.130575571838	0.130575571876	0.130575571896	
0.130575571871	0.130575571871	0.130575571874	0.130575571877	0.13057557192	
0.130575571895	0.130575571931	0.13057557187	0.130575571838	0.130575571872	
0.13057557187	0.130575571831	0.130575571853	0.130575571863	0.130575571852	
0.130575571906	0.130575571891	0.130575571922	0.130575571923	0.130575571894	
0.130575571918	0.130575571906	0.130575571874	0.130575571906	0.130575571921	
0.130575571906	0.130575571939	0.130575571917	0.130575571972	0.130575571937	
0.130575571922	0.130575571921	0.130575571918	0.1305755719	0.130575571941	
0.130575571961	0.130575571945	0.13057557197	0.13057557194	0.130575571999	
0.130575571899	0.130575571887	0.130575571875	0.130575571894	0.130575571884	
0.130575571916	0.130575571929	0.130575571915	0.130575571949	0.130575571915	
0.130575571957	0.13057557187	0.130575571828	0.130575571842	0.130575571888	
0.13057557188	0.130575571892	0.130575571892	0.130575571891	0.130575571941	
0.130575571911	0.130575571945	0.130575571883	0.130575571865	0.130575571871	
0.130575571917	0.130575571905	0.130575571939	0.130575571957	0.130575571943	
0.13057557198	0.130575571972	0.13057557197	0.130575571799	0.130575571789	
0.130575571885	0.130575571852	0.130575571851	0.130575571893	0.130575571915	
0.130575571903	0.130575571964	0.130575571942	0.13057557195	0.299947033474	
0.299947033375	0.299947033439	0.29994703343	0.299947033443	0.299947033437	
0.299947033426	0.299947033415	0.299947033449	0.299947033463	0.299947033453	
0.29994703337	0.29994703339	0.29994703344	0.299947033393	0.299947033388	
0.299947033424	0.299947033436	0.299947033409	0.299947033426	0.299947033463	
0.299947033505	0.29994703333	0.29994703332	0.299947033391	0.299947033407	
0.29994703337	0.29994703336	0.299947033349	0.299947033333	0.299947033401	
0.299947033429	0.299947033446	0.299947033409	0.29994703335	0.299947033389	
0.299947033409	0.299947033383	0.299947033384	0.299947033387	0.29994703339	
0.299947033434	0.299947033408	0.299947033444	0.299947033384	0.299947033351	
0.299947033385	0.299947033383	0.299947033342	0.299947033365	0.299947033376	
0.299947033364	0.299947033419	0.299947033403	0.299947033434	0.299947033439	
0.299947033407	0.299947033431	0.299947033419	0.299947033387	0.299947033419	
0.299947033435	0.299947033419	0.299947033453	0.299947033429	0.299947033486	
0.299947033453	0.299947033436	0.299947033435	0.299947033432	0.299947033414	
0.299947033455	0.299947033475	0.299947033459	0.299947033485	0.299947033454	
0.299947033514	0.299947033413	0.2999470334	0.299947033387	0.299947033407	
0.299947033397	0.299947033429	0.299947033443	0.299947033429	0.299947033464	
0.299947033428	0.29994703347	0.299947033383	0.299947033339	0.299947033353	
0.2999470334	0.299947033392	0.299947033404	0.299947033404	0.299947033403	
0.299947033454	0.299947033423	0.299947033457	0.299947033395	0.299947033376	
0.299947033382	0.299947033429	0.299947033416	0.299947033452	0.299947033469	
0.299947033455	0.299947033493	0.299947033484	0.299947033481	0.299947033309	
0.299947033298	0.299947033396	0.299947033362	0.29994703336	0.299947033404	
0.299947033426	0.299947033414	0.299947033476	0.299947033453	0.299947033461	
0.283297879187	0.283297879085	0.28329787915	0.28329787914	0.283297879154	
0.283297879147	0.283297879136	0.283297879125	0.283297879159	0.283297879174	
0.283297879163	0.283297879079	0.283297879099	0.283297879151	0.283297879102	
0.283297879097	0.283297879134	0.283297879146	0.283297879118	0.283297879136	
0.283297879174	0.283297879216	0.283297879039	0.283297879027	0.283297879099	
0.283297879116	0.283297879078	0.283297879067	0.283297879056	0.28329787904	
0.283297879109	0.283297879138	0.283297879154	0.283297879119	0.283297879058	
0.283297879097	0.283297879118	0.283297879091	0.283297879092	0.283297879095	
0.283297879098	0.283297879143	0.283297879116	0.283297879152	0.283297879093	
0.283297879058	0.283297879093	0.28329787909	0.283297879049	0.283297879072	
0.283297879083	0.283297879071	0.283297879128	0.283297879111	0.283297879142	
0.283297879149	0.283297879116	0.28329787914	0.283297879127	0.283297879094	
0.283297879128	0.283297879144	0.283297879127	0.283297879163	0.283297879138	
0.283297879195	0.283297879163	0.283297879145	0.283297879144	0.283297879141	
0.283297879122	0.283297879164	0.283297879185	0.283297879168	0.283297879195	
0.283297879163	0.283297879223	0.283297879122	0.283297879108	0.283297879094	
0.283297879115	0.283297879104	0.283297879138	0.283297879152	0.283297879137	
0.283297879173	0.283297879136	0.283297879178	0.283297879091	0.283297879046	
0.283297879059	0.283297879107	0.283297879099	0.283297879111	0.283297879111	
0.28329787911	0.283297879162	0.28329787913	0.283297879164	0.283297879102	
0.283297879081	0.283297879087	0.283297879136	0.283297879122	0.283297879159	
0.283297879177	0.283297879163	0.283297879201	0.283297879192	0.283297879188	
0.283297879013	0.283297879001	0.283297879101	0.283297879067	0.283297879065	
0.28329787911	0.283297879133	0.28329787912	0.283297879184	0.28329787916	
0.283297879166	0.266648724899	0.266648724794	0.266648724861	0.26664872485	
0.266648724865	0.266648724857	0.266648724846	0.266648724835	0.26664872487	
0.266648724885	0.266648724872	0.266648724789	0.266648724809	0.266648724862	
0.266648724812	0.266648724806	0.266648724845	0.266648724857	0.266648724828	
0.266648724846	0.266648724885	0.266648724927	0.266648724747	0.266648724734	
0.266648724808	0.266648724825	0.266648724786	0.266648724775	0.266648724763	
0.266648724747	0.266648724818	0.266648724847	0.266648724863	0.266648724829	
0.266648724765	0.266648724805	0.266648724827	0.266648724799	0.2666487248	
0.266648724803	0.266648724806	0.266648724852	0.266648724823	0.26664872486	
0.266648724802	0.266648724765	0.2666487248	0.266648724798	0.266648724755	
0.266648724779	0.266648724791	0.266648724778	0.266648724836	0.266648724818	
0.266648724849	0.266648724859	0.266648724824	0.266648724849	0.266648724836	
0.266648724802	0.266648724836	0.266648724853	0.266648724836	0.266648724872	
0.266648724846	0.266648724904	0.266648724873	0.266648724855	0.266648724853	
0.266648724849	0.26664872483	0.266648724873	0.266648724895	0.266648724878	