<VTKFile type="RectilinearGrid" version="0.1" format="ascii">
<RectilinearGrid WholeExtent = "1 11 1 11 1 76">
<Piece Extent =  "1 11 1 11 1 76">
<Coordinates>
<DataArray type="Float64" Name ="X_COORDINATES" NumberOfComponents="1" format="ascii">
0	100	200	300	400	
500	600	700	800	900	
1000	
</DataArray>
<DataArray type="Float64" Name ="Y_COORDINATES" NumberOfComponents="1" format="ascii">
0	60	120	180	240	
300	360	420	480	540	
600	
</DataArray>
<DataArray type="Float64" Name ="Z_COORDINATES" NumberOfComponents ="1" format="ascii">
-10	0	1.25	2.5	3.75	
5	7	9	11	13	
14	15	16	17	17.5	
18	18.5	19	19.5	20	
20.5	21	21.5	22	22.5	
23	23.5	24	24.5	25	
27.3999996185	29.7999992371	32.2000007629	34.5999984741	37	
38	39	40	41	42	
43	44	45	46	47	
48	49	50	52.5	55	
57.5	60	62.5	65	67.5	
70	72.5	75	78.75	82.5	
86.25	90	104.285667419	118.571334839	132.856994629	
147.142669678	161.428329468	175.714004517	190	206.666671753	
223.333328247	240	256.666656494	273.333343506	290	
300	
</DataArray>
</Coordinates>
<PointData>
<DataArray type="Float64" Name="potential" NumberOfComponents="1" format="ascii">
2.37866403008	2.37866403008	2.37866403008	2.37866403008	2.37866403008	
2.37866403008	2.37866403008	2.37866403008	2.37866403008	2.37866403008	
2.37866403008	2.37866403008	2.37866403008	2.37866403008	2.37866403008	
2.37866403008	2.37866403008	2.37866403008	2.37866403008	2.37866403008	
2.37866403008	2.37866403008	2.37866403008	2.37866403008	2.37866403008	
2.37866403008	2.37866403008	2.37866403008	2.37866403008	2.37866403008	
2.37866403008	2.37866403008	2.37866403008	2.37866403008	2.37866403008	
2.37866403008	2.37866403008	2.37866403008	2.37866403008	2.37866403008	
2.37866403008	2.37866403008	2.37866403008	2.37866403008	2.37866403008	
2.37866403008	2.37866403008	2.37866403008	2.37866403008	2.37866403008	
2.37866403008	2.37866403008	2.37866403008	2.37866403008	2.37866403008	
2.37866403008	2.37866403008	2.37866403008	2.37866403008	2.37866403008	
2.37866403008	2.37866403008	2.37866403008	2.37866403008	2.37866403008	
2.37866403008	2.37866403008	2.37866403008	2.37866403008	2.37866403008	
2.37866403008	2.37866403008	2.37866403008	2.37866403008	2.37866403008	
2.37866403008	2.37866403008	2.37866403008	2.37866403008	2.37866403008	
2.37866403008	2.37866403008	2.37866403008	2.37866403008	2.37866403008	
2.37866403008	2.37866403008	2.37866403008	2.37866403008	2.37866403008	
2.37866403008	2.37866403008	2.37866403008	2.37866403008	2.37866403008	
2.37866403008	2.37866403008	2.37866403008	2.37866403008	2.37866403008	
2.37866403008	2.37866403008	2.37866403008	2.37866403008	2.37866403008	
2.37866403008	2.37866403008	2.37866403008	2.37866403008	2.37866403008	
2.37866403008	2.37866403008	2.37866403008	2.37866403008	2.37866403008	
2.37866403008	2.37866403008	2.37866403008	2.37866403008	2.37866403008	
2.37866403008	2.37866403008	2.37866403008	2.37866403008	2.37866403008	
2.37866403008	2.37866403008	2.37866403008	2.37866403008	2.37866403008	
2.37866403008	2.37866403008	2.37866403008	2.37866403008	2.37866403008	
2.37866403008	2.37866403008	2.37866403008	2.37866403008	2.37866403008	
2.37866403008	2.37866403008	2.37866403008	2.37866403008	2.37866403008	
2.37866403008	2.37866403008	2.37866403008	2.37866403008	2.37866403008	
2.37866403008	2.37866403008	2.37866403008	2.37866403008	2.37866403008	
2.37866403008	2.37866403008	2.37866403008	2.37866403008	2.37866403008	
2.37866403008	2.37866403008	2.37866403008	2.37866403008	2.37866403008	
2.37866403008	2.37866403008	2.37866403008	2.37866403008	2.37866403008	
2.37866403008	2.37866403008	2.37866403008	2.37866403008	2.37866403008	
2.37866403008	2.37866403008	2.37866403008	2.37866403008	2.37866403008	
2.37866403008	2.37866403008	2.37866403008	2.37866403008	2.37866403008	
2.37866403008	2.37866403008	2.37866403008	2.37866403008	2.37866403008	
2.37866403008	2.37866403008	2.37866403008	2.37866403008	2.37866403008	
2.37866403008	2.37866403008	2.37866403008	2.37866403008	2.37866403008	
2.37866403008	2.37866403008	2.37866403008	2.37866403008	2.37866403008	
2.37866403008	2.37866403008	2.37866403008	2.37866403008	2.37866403008	
2.37866403008	2.37866403008	2.37866403008	2.37866403008	2.37866403008	
2.37866403008	2.37866403008	2.37866403008	2.37866403008	2.37866403008	
2.37866403008	2.37866403008	2.37866403008	2.37866403008	2.37866403008	
2.37866403008	2.37866403008	2.37866403008	2.37866403008	2.37866403008	
2.37866403008	2.37866403008	2.37866403008	2.37866403008	2.37866403008	
2.37866403008	2.37866403008	2.37866403008	2.37866403008	2.37866403008	
2.37866403008	2.37866403008	2.4173346203	2.41733462031	2.4173346203	
2.4173346203	2.4173346203	2.4173346203	2.4173346203	2.4173346203	
2.4173346203	2.4173346203	2.4173346203	2.41733462031	2.41733462031	
2.4173346203	2.4173346203	2.41733462031	2.4173346203	2.4173346203	
2.4173346203	2.4173346203	2.4173346203	2.41733462029	2.41733462031	
2.41733462031	2.4173346203	2.4173346203	2.4173346203	2.4173346203	
2.41733462031	2.41733462031	2.4173346203	2.4173346203	2.4173346203	
2.4173346203	2.41733462031	2.4173346203	2.4173346203	2.4173346203	
2.4173346203	2.4173346203	2.4173346203	2.4173346203	2.4173346203	
2.41733462029	2.4173346203	2.4173346203	2.4173346203	2.4173346203	
2.4173346203	2.4173346203	2.4173346203	2.4173346203	2.4173346203	
2.4173346203	2.41733462029	2.4173346203	2.4173346203	2.4173346203	
2.4173346203	2.4173346203	2.4173346203	2.4173346203	2.4173346203	
2.4173346203	2.4173346203	2.41733462029	2.4173346203	2.4173346203	
2.4173346203	2.4173346203	2.4173346203	2.4173346203	2.41733462029	
2.4173346203	2.41733462029	2.4173346203	2.41733462029	2.4173346203	
2.4173346203	2.4173346203	2.4173346203	2.4173346203	2.4173346203	
2.4173346203	2.4173346203	2.4173346203	2.4173346203	2.41733462029	
2.4173346203	2.4173346203	2.4173346203	2.4173346203	2.4173346203	
2.4173346203	2.4173346203	2.4173346203	2.4173346203	2.4173346203	
2.41733462029	2.4173346203	2.4173346203	2.4173346203	2.4173346203	
2.4173346203	2.41733462029	2.41733462029	2.41733462029	2.41733462029	
2.41733462029	2.41733462029	2.4173346203	2.4173346203	2.41733462029	
2.4173346203	2.4173346203	2.41733462029	2.41733462029	2.41733462029	
2.41733462029	2.41733462029	2.41733462028	2.45600521052	2.45600521054	
2.45600521053	2.45600521053	2.45600521052	2.45600521053	2.45600521053	
2.45600521053	2.45600521052	2.45600521052	2.45600521052	2.45600521054	
2.45600521053	2.45600521052	2.45600521053	2.45600521053	2.45600521052	
2.45600521052	2.45600521053	2.45600521052	2.45600521052	2.45600521051	
2.45600521054	2.45600521054	2.45600521052	2.45600521052	2.45600521053	
2.45600521053	2.45600521053	2.45600521053	2.45600521052	2.45600521052	
2.45600521051	2.45600521053	2.45600521053	2.45600521052	2.45600521052	
2.45600521052	2.45600521052	2.45600521052	2.45600521052	2.45600521052	
2.45600521052	2.45600521051	2.45600521053	2.45600521053	2.45600521052	
2.45600521052	2.45600521053	2.45600521052	2.45600521052	2.45600521052	
2.45600521052	2.45600521052	2.45600521051	2.45600521052	2.45600521052	
2.45600521052	2.45600521052	2.45600521052	2.45600521052	2.45600521051	
2.45600521052	2.45600521051	2.45600521051	2.4560052105	2.45600521052	
2.45600521052	2.45600521051	2.45600521052	2.45600521052	2.45600521051	
2.45600521051	2.45600521051	2.45600521051	2.45600521051	2.4560052105	
2.45600521052	2.45600521052	2.45600521052	2.45600521052	2.45600521052	
2.45600521052	2.45600521051	2.45600521052	2.45600521051	2.45600521051	
2.4560052105	2.45600521053	2.45600521053	2.45600521053	2.45600521052	
2.45600521052	2.45600521052	2.45600521052	2.45600521052	2.45600521051	
2.45600521051	2.4560052105	2.45600521052	2.45600521052	2.45600521052	
2.45600521051	2.45600521051	2.45600521051	2.4560052105	2.45600521051	
2.4560052105	2.4560052105	2.4560052105	2.45600521053	2.45600521052	
2.45600521051	2.45600521051	2.45600521051	2.45600521051	2.4560052105	
2.45600521051	2.4560052105	2.4560052105	2.45600521049	2.49467580075	
2.49467580076	2.49467580075	2.49467580075	2.49467580075	2.49467580075	
2.49467580075	2.49467580075	2.49467580074	2.49467580074	2.49467580074	
2.49467580077	2.49467580076	2.49467580074	2.49467580075	2.49467580075	
2.49467580075	2.49467580074	2.49467580075	2.49467580075	2.49467580074	
2.49467580072	2.49467580077	2.49467580076	2.49467580075	2.49467580074	
2.49467580075	2.49467580075	2.49467580075	2.49467580076	2.49467580074	
2.49467580074	2.49467580073	2.49467580075	2.49467580075	2.49467580074	
2.49467580074	2.49467580074	2.49467580074	2.49467580074	2.49467580074	
2.49467580073	2.49467580074	2.49467580072	2.49467580075	2.49467580075	
2.49467580074	2.49467580074	2.49467580075	2.49467580075	2.49467580074	
2.49467580075	2.49467580074	2.49467580074	2.49467580072	2.49467580074	
2.49467580074	2.49467580073	2.49467580074	2.49467580074	2.49467580074	
2.49467580073	2.49467580074	2.49467580073	2.49467580073	2.49467580071	
2.49467580074	2.49467580073	2.49467580073	2.49467580073	2.49467580074	
2.49467580073	2.49467580072	2.49467580073	2.49467580072	2.49467580073	
2.49467580071	2.49467580075	2.49467580074	2.49467580074	2.49467580074	
2.49467580074	2.49467580073	2.49467580073	2.49467580073	2.49467580073	
2.49467580073	2.49467580071	2.49467580075	2.49467580075	2.49467580075	
2.49467580074	2.49467580074	2.49467580074	2.49467580074	2.49467580074	
2.49467580073	2.49467580073	2.49467580072	2.49467580074	2.49467580074	
2.49467580074	2.49467580073	2.49467580073	2.49467580072	2.49467580072	
2.49467580072	2.49467580071	2.49467580071	2.4946758007	2.49467580076	
2.49467580075	2.49467580072	2.49467580073	2.49467580073	2.49467580072	
2.49467580072	2.49467580072	2.49467580071	2.49467580071	2.4946758007	
2.53334639097	2.53334639099	2.53334639097	2.53334639097	2.53334639097	
2.53334639097	2.53334639097	2.53334639097	2.53334639096	2.53334639096	
2.53334639096	2.53334639099	2.53334639098	2.53334639096	2.53334639098	
2.53334639098	2.53334639097	2.53334639096	2.53334639097	2.53334639097	
2.53334639095	2.53334639094	2.533346391	2.53334639099	2.53334639097	
2.53334639096	2.53334639097	2.53334639098	2.53334639098	2.53334639098	
2.53334639096	2.53334639095	2.53334639094	2.53334639097	2.53334639098	
2.53334639097	2.53334639096	2.53334639097	2.53334639097	2.53334639096	
2.53334639096	2.53334639095	2.53334639096	2.53334639094	2.53334639098	
2.53334639098	2.53334639096	2.53334639096	2.53334639098	2.53334639097	
2.53334639097	2.53334639097	2.53334639095	2.53334639096	2.53334639094	
2.53334639096	2.53334639096	2.53334639095	2.53334639095	2.53334639096	
2.53334639095	2.53334639095	2.53334639095	2.53334639094	2.53334639095	
2.53334639092	2.53334639096	2.53334639095	2.53334639095	2.53334639095	
2.53334639096	2.53334639094	2.53334639094	2.53334639094	2.53334639094	
2.53334639094	2.53334639092	2.53334639097	2.53334639096	2.53334639096	
2.53334639096	2.53334639096	2.53334639095	2.53334639095	2.53334639095	
2.53334639094	2.53334639095	2.53334639093	2.53334639097	2.53334639098	
2.53334639097	2.53334639096	2.53334639096	2.53334639096	2.53334639096	
2.53334639096	2.53334639094	2.53334639095	2.53334639093	2.53334639097	
2.53334639096	2.53334639096	2.53334639094	2.53334639095	2.53334639094	
2.53334639093	2.53334639093	2.53334639092	2.53334639092	2.53334639091	
2.53334639098	2.53334639097	2.53334639094	2.53334639095	2.53334639095	
2.53334639094	2.53334639093	2.53334639093	2.53334639092	2.53334639092	
2.53334639091	2.59994300814	2.59994300817	2.59994300814	2.59994300814	
2.59994300814	2.59994300814	2.59994300814	2.59994300815	2.59994300814	
2.59994300813	2.59994300812	2.59994300817	2.59994300816	2.59994300814	
2.59994300815	2.59994300815	2.59994300814	2.59994300814	2.59994300815	
2.59994300814	2.59994300812	2.5999430081	2.59994300818	2.59994300818	
2.59994300814	2.59994300814	2.59994300815	2.59994300815	2.59994300816	
2.59994300816	2.59994300814	2.59994300812	2.59994300811	2.59994300815	
2.59994300816	2.59994300814	2.59994300813	2.59994300814	2.59994300814	
2.59994300814	2.59994300814	2.59994300812	2.59994300813	2.5999430081	
2.59994300815	2.59994300816	2.59994300814	2.59994300814	2.59994300816	
2.59994300815	2.59994300814	2.59994300815	2.59994300812	2.59994300813	
2.5999430081	2.59994300813	2.59994300813	2.59994300812	2.59994300813	
2.59994300814	2.59994300812	2.59994300812	2.59994300812	2.59994300811	
2.59994300812	2.59994300808	2.59994300813	2.59994300812	2.59994300812	
2.59994300812	2.59994300813	2.59994300811	2.5999430081	2.59994300811	
2.5999430081	2.59994300811	2.59994300807	2.59994300814	2.59994300814	
2.59994300814	2.59994300813	2.59994300813	2.59994300812	2.59994300811	
2.59994300812	2.59994300811	2.59994300812	2.59994300809	2.59994300815	
2.59994300816	2.59994300815	2.59994300813	2.59994300813	2.59994300813	
2.59994300813	2.59994300813	2.59994300811	2.59994300812	2.59994300809	
2.59994300814	2.59994300813	2.59994300813	2.59994300811	2.59994300811	
2.5999430081	2.59994300809	2.5999430081	2.59994300808	2.59994300808	
2.59994300807	2.59994300816	2.59994300815	2.59994300811	2.59994300812	
2.59994300812	2.5999430081	2.5999430081	2.5999430081	2.59994300808	
2.59994300808	2.59994300806	2.6665396253	2.66653962535	2.66653962531	
2.66653962531	2.66653962531	2.66653962531	2.66653962532	2.66653962532	
2.6665396253	2.66653962529	2.66653962529	2.66653962535	2.66653962533	
2.66653962531	2.66653962533	2.66653962533	2.66653962531	2.66653962531	
2.66653962532	2.66653962531	2.66653962529	2.66653962526	2.66653962536	
2.66653962536	2.66653962532	2.66653962531	2.66653962533	2.66653962533	
2.66653962534	2.66653962535	2.66653962531	2.66653962529	2.66653962528	
2.66653962532	2.66653962534	2.66653962532	2.6665396253	2.66653962532	
2.66653962532	2.66653962532	2.66653962531	2.66653962529	2.6665396253	
2.66653962527	2.66653962533	2.66653962534	2.66653962532	2.66653962532	
2.66653962534	2.66653962533	2.66653962532	2.66653962532	2.6665396253	
2.6665396253	2.66653962527	2.6665396253	2.66653962531	2.66653962529	
2.6665396253	2.66653962531	2.6665396253	2.66653962529	2.6665396253	
2.66653962528	2.66653962529	2.66653962525	2.66653962529	2.66653962529	
2.66653962529	2.66653962529	2.6665396253	2.66653962528	2.66653962527	
2.66653962528	2.66653962526	2.66653962527	2.66653962523	2.66653962531	
2.66653962531	2.66653962531	2.6665396253	2.66653962531	2.66653962529	
2.66653962528	2.66653962529	2.66653962527	2.66653962529	2.66653962525	
2.66653962533	2.66653962534	2.66653962533	2.6665396253	2.66653962531	
2.6665396253	2.6665396253	2.6665396253	2.66653962527	2.66653962529	
2.66653962526	2.66653962531	2.66653962531	2.6665396253	2.66653962528	
2.66653962528	2.66653962527	2.66653962526	2.66653962526	2.66653962524	
2.66653962524	2.66653962523	2.66653962535	2.66653962534	2.66653962528	
2.6665396253	2.6665396253	2.66653962528	2.66653962527	2.66653962527	
2.66653962524	2.66653962525	2.66653962523	2.73313624247	2.73313624252	
2.73313624248	2.73313624248	2.73313624247	2.73313624248	2.73313624248	
2.73313624249	2.73313624247	2.73313624246	2.73313624246	2.73313624253	
2.73313624251	2.73313624247	2.7331362425	2.7331362425	2.73313624248	
2.73313624247	2.73313624249	2.73313624248	2.73313624245	2.73313624242	
2.73313624254	2.73313624254	2.73313624249	2.73313624248	2.73313624251	
2.73313624251	2.73313624252	2.73313624253	2.73313624249	2.73313624247	
2.73313624245	2.73313624249	2.73313624252	2.73313624249	2.73313624248	
2.73313624249	2.73313624249	2.73313624249	2.73313624249	2.73313624246	
2.73313624247	2.73313624244	2.73313624251	2.73313624252	2.73313624249	
2.73313624249	2.73313624252	2.7331362425	2.7331362425	2.7331362425	
2.73313624247	2.73313624248	2.73313624245	2.73313624247	2.73313624248	
2.73313624246	2.73313624247	2.73313624249	2.73313624247	2.73313624246	
2.73313624247	2.73313624245	2.73313624246	2.73313624241	2.73313624246	
2.73313624246	2.73313624246	2.73313624246	2.73313624247	2.73313624245	
2.73313624243	2.73313624244	2.73313624243	2.73313624244	2.73313624239	
2.73313624249	2.73313624248	2.73313624249	2.73313624248	2.73313624248	
2.73313624246	2.73313624245	2.73313624246	2.73313624244	2.73313624246	
2.73313624242	2.7331362425	2.73313624252	2.73313624251	2.73313624248	
2.73313624248	2.73313624247	2.73313624247	2.73313624247	2.73313624244	
2.73313624246	2.73313624242	2.73313624249	2.73313624249	2.73313624248	
2.73313624245	2.73313624246	2.73313624243	2.73313624242	2.73313624243	
2.73313624241	2.73313624241	2.7331362424	2.73313624253	2.73313624253	
2.73313624246	2.73313624248	2.73313624248	2.73313624245	2.73313624244	
2.73313624245	2.73313624241	2.73313624242	2.7331362424	2.79973285962	
2.79973285969	2.79973285964	2.79973285965	2.79973285964	2.79973285964	
2.79973285965	2.79973285966	2.79973285963	2.79973285962	2.79973285962	
2.7997328597	2.79973285968	2.79973285964	2.79973285967	2.79973285968	
2.79973285965	2.79973285964	2.79973285966	2.79973285965	2.79973285962	
2.79973285958	2.79973285972	2.79973285972	2.79973285967	2.79973285966	
2.79973285968	2.79973285969	2.7997328597	2.79973285971	2.79973285966	
2.79973285964	2.79973285962	2.79973285966	2.7997328597	2.79973285967	
2.79973285965	2.79973285967	2.79973285967	2.79973285967	2.79973285966	
2.79973285963	2.79973285965	2.79973285961	2.79973285968	2.7997328597	
2.79973285967	2.79973285967	2.7997328597	2.79973285968	2.79973285967	
2.79973285968	2.79973285964	2.79973285965	2.79973285962	2.79973285964	
2.79973285965	2.79973285963	2.79973285964	2.79973285967	2.79973285964	
2.79973285963	2.79973285964	2.79973285962	2.79973285963	2.79973285958	
2.79973285963	2.79973285963	2.79973285963	2.79973285963	2.79973285964	
2.79973285961	2.7997328596	2.79973285961	2.79973285959	2.79973285961	
2.79973285956	2.79973285966	2.79973285966	2.79973285966	2.79973285965	
2.79973285966	2.79973285963	2.79973285962	2.79973285963	2.79973285961	
2.79973285963	2.79973285959	2.79973285968	2.7997328597	2.79973285969	
2.79973285965	2.79973285966	2.79973285965	2.79973285965	2.79973285965	
2.79973285961	2.79973285963	2.7997328596	2.79973285966	2.79973285966	
2.79973285966	2.79973285962	2.79973285963	2.7997328596	2.79973285959	
2.7997328596	2.79973285957	2.79973285958	2.79973285957	2.79973285972	
2.79973285972	2.79973285964	2.79973285966	2.79973285966	2.79973285963	
2.79973285962	2.79973285962	2.79973285958	2.79973285959	2.79973285958	
2.83947934066	2.83947934073	2.83947934068	2.83947934069	2.83947934068	
2.83947934068	2.83947934069	2.8394793407	2.83947934067	2.83947934066	
2.83947934066	2.83947934074	2.83947934072	2.83947934068	2.83947934072	
2.83947934072	2.83947934069	2.83947934068	2.8394793407	2.83947934069	
2.83947934066	2.83947934062	2.83947934077	2.83947934077	2.83947934071	
2.8394793407	2.83947934073	2.83947934074	2.83947934075	2.83947934076	
2.8394793407	2.83947934068	2.83947934066	2.8394793407	2.83947934075	
2.83947934071	2.83947934069	2.83947934072	2.83947934072	2.83947934071	
2.83947934071	2.83947934067	2.83947934069	2.83947934066	2.83947934072	
2.83947934074	2.83947934071	2.83947934072	2.83947934075	2.83947934073	
2.83947934072	2.83947934073	2.83947934069	2.8394793407	2.83947934066	
2.83947934068	2.8394793407	2.83947934068	2.83947934069	2.83947934071	
2.83947934069	2.83947934067	2.83947934069	2.83947934066	2.83947934067	
2.83947934062	2.83947934067	2.83947934067	2.83947934067	2.83947934067	
2.83947934069	2.83947934066	2.83947934064	2.83947934065	2.83947934063	
2.83947934065	2.8394793406	2.8394793407	2.8394793407	2.83947934071	
2.83947934069	2.8394793407	2.83947934068	2.83947934066	2.83947934068	
2.83947934065	2.83947934067	2.83947934063	2.83947934072	2.83947934075	
2.83947934074	2.8394793407	2.8394793407	2.83947934069	2.83947934069	
2.83947934069	2.83947934065	2.83947934067	2.83947934064	2.8394793407	
2.83947934071	2.8394793407	2.83947934067	2.83947934068	2.83947934065	
2.83947934063	2.83947934064	2.83947934061	2.83947934062	2.83947934061	
2.83947934077	2.83947934077	2.83947934069	2.83947934072	2.83947934072	
2.83947934068	2.83947934066	2.83947934067	2.83947934062	2.83947934064	
2.83947934063	2.87922582169	2.87922582178	2.87922582172	2.87922582173	
2.87922582171	2.87922582172	2.87922582173	2.87922582174	2.87922582171	
2.8792258217	2.8792258217	2.87922582178	2.87922582176	2.87922582172	
2.87922582176	2.87922582176	2.87922582173	2.87922582172	2.87922582174	
2.87922582173	2.87922582169	2.87922582165	2.87922582181	2.87922582182	
2.87922582176	2.87922582174	2.87922582177	2.87922582178	2.87922582179	
2.87922582181	2.87922582175	2.87922582172	2.8792258217	2.87922582174	
2.87922582179	2.87922582176	2.87922582174	2.87922582176	2.87922582176	
2.87922582176	2.87922582175	2.87922582172	2.87922582174	2.8792258217	
2.87922582177	2.87922582179	2.87922582176	2.87922582176	2.8792258218	
2.87922582178	2.87922582177	2.87922582178	2.87922582173	2.87922582174	
2.87922582171	2.87922582172	2.87922582174	2.87922582172	2.87922582173	
2.87922582176	2.87922582173	2.87922582171	2.87922582173	2.8792258217	
2.87922582172	2.87922582166	2.8792258217	2.87922582172	2.87922582171	
2.87922582172	2.87922582173	2.8792258217	2.87922582168	2.87922582169	
2.87922582167	2.8792258217	2.87922582164	2.87922582174	2.87922582175	
2.87922582176	2.87922582174	2.87922582175	2.87922582172	2.87922582171	
2.87922582172	2.87922582169	2.87922582172	2.87922582168	2.87922582176	
2.8792258218	2.87922582178	2.87922582174	2.87922582175	2.87922582174	
2.87922582174	2.87922582174	2.87922582169	2.87922582172	2.87922582169	
2.87922582175	2.87922582176	2.87922582175	2.87922582171	2.87922582172	
2.87922582169	2.87922582168	2.87922582169	2.87922582166	2.87922582166	
2.87922582166	2.87922582182	2.87922582183	2.87922582174	2.87922582177	
2.87922582177	2.87922582173	2.87922582171	2.87922582172	2.87922582167	
2.87922582169	2.87922582168	2.91016229386	2.91016229395	2.91016229389	
2.9101622939	2.91016229389	2.91016229389	2.9101622939	2.91016229391	
2.91016229388	2.91016229387	2.91016229387	2.91016229396	2.91016229394	
2.91016229389	2.91016229393	2.91016229394	2.9101622939	2.91016229389	
2.91016229392	2.9101622939	2.91016229387	2.91016229382	2.91016229399	
2.910162294	2.91016229393	2.91016229392	2.91016229395	2.91016229396	
2.91016229397	2.91016229398	2.91016229392	2.91016229389	2.91016229388	
2.91016229392	2.91016229397	2.91016229393	2.91016229391	2.91016229394	
2.91016229394	2.91016229393	2.91016229393	2.91016229389	2.91016229391	
2.91016229388	2.91016229394	2.91016229397	2.91016229394	2.91016229394	
2.91016229397	2.91016229395	2.91016229394	2.91016229395	2.9101622939	
2.91016229392	2.91016229389	2.91016229389	2.91016229392	2.91016229389	
2.9101622939	2.91016229393	2.9101622939	2.91016229389	2.9101622939	
2.91016229387	2.91016229389	2.91016229384	2.91016229388	2.91016229389	
2.91016229389	2.91016229389	2.91016229391	2.91016229387	2.91016229385	
2.91016229387	2.91016229384	2.91016229387	2.91016229381	2.91016229391	
2.91016229392	2.91016229393	2.91016229391	2.91016229392	2.91016229389	
2.91016229388	2.91016229389	2.91016229386	2.91016229389	2.91016229385	
2.91016229394	2.91016229398	2.91016229396	2.91016229392	2.91016229393	
2.91016229392	2.91016229392	2.91016229392	2.91016229387	2.9101622939	
2.91016229386	2.91016229392	2.91016229394	2.91016229393	2.91016229389	
2.9101622939	2.91016229387	2.91016229385	2.91016229386	2.91016229383	
2.91016229384	2.91016229384	2.910162294	2.91016229401	2.91016229392	
2.91016229395	2.91016229395	2.91016229391	2.91016229389	2.9101622939	
2.91016229384	2.91016229386	2.91016229385	2.94109876603	2.94109876612	
2.94109876606	2.94109876607	2.94109876606	2.94109876606	2.94109876607	
2.94109876608	2.94109876605	2.94109876604	2.94109876605	2.94109876613	
2.94109876611	2.94109876606	2.94109876611	2.94109876611	2.94109876607	
2.94109876606	2.94109876609	2.94109876607	2.94109876604	2.94109876599	
2.94109876617	2.94109876618	2.94109876611	2.94109876609	2.94109876613	
2.94109876614	2.94109876615	2.94109876616	2.9410987661	2.94109876607	
2.94109876605	2.94109876609	2.94109876615	2.94109876611	2.94109876609	
2.94109876611	2.94109876611	2.94109876611	2.94109876611	2.94109876606	
2.94109876609	2.94109876605	2.94109876611	2.94109876615	2.94109876611	
2.94109876611	2.94109876615	2.94109876613	2.94109876612	2.94109876613	
2.94109876608	2.94109876609	2.94109876606	2.94109876606	2.94109876609	
2.94109876607	2.94109876608	2.94109876611	2.94109876608	2.94109876606	
2.94109876608	2.94109876604	2.94109876607	2.94109876601	2.94109876605	
2.94109876606	2.94109876606	2.94109876607	2.94109876608	2.94109876604	
2.94109876602	2.94109876604	2.94109876601	2.94109876604	2.94109876598	
2.94109876609	2.9410987661	2.94109876611	2.94109876609	2.9410987661	
2.94109876607	2.94109876605	2.94109876607	2.94109876603	2.94109876607	
2.94109876603	2.94109876611	2.94109876616	2.94109876614	2.9410987661	
2.9410987661	2.94109876609	2.94109876609	2.94109876609	2.94109876604	
2.94109876607	2.94109876604	2.9410987661	2.94109876612	2.94109876611	
2.94109876607	2.94109876608	2.94109876604	2.94109876603	2.94109876604	
2.941098766	2.94109876601	2.94109876601	2.94109876618	2.94109876619	
2.9410987661	2.94109876613	2.94109876613	2.94109876609	2.94109876607	
2.94109876608	2.94109876602	2.94109876604	2.94109876603	2.95774792031	
2.95774792041	2.95774792035	2.95774792036	2.95774792035	2.95774792035	
2.95774792036	2.95774792037	2.95774792034	2.95774792033	2.95774792034	
2.95774792042	2.9577479204	2.95774792035	2.9577479204	2.9577479204	
2.95774792036	2.95774792035	2.95774792038	2.95774792036	2.95774792033	
2.95774792028	2.95774792046	2.95774792047	2.9577479204	2.95774792038	
2.95774792042	2.95774792043	2.95774792044	2.95774792046	2.95774792039	
2.95774792036	2.95774792034	2.95774792038	2.95774792044	2.9577479204	
2.95774792038	2.95774792041	2.9577479204	2.9577479204	2.9577479204	
2.95774792035	2.95774792038	2.95774792034	2.9577479204	2.95774792044	
2.9577479204	2.95774792041	2.95774792045	2.95774792042	2.95774792041	
2.95774792042	2.95774792037	2.95774792039	2.95774792035	2.95774792035	
2.95774792038	2.95774792036	2.95774792037	2.9577479204	2.95774792037	
2.95774792035	2.95774792037	2.95774792034	2.95774792036	2.9577479203	
2.95774792034	2.95774792035	2.95774792035	2.95774792036	2.95774792038	
2.95774792033	2.95774792031	2.95774792033	2.9577479203	2.95774792033	
2.95774792028	2.95774792038	2.95774792039	2.9577479204	2.95774792038	
2.95774792039	2.95774792036	2.95774792035	2.95774792036	2.95774792033	
2.95774792036	2.95774792032	2.95774792041	2.95774792045	2.95774792044	
2.95774792039	2.9577479204	2.95774792038	2.95774792038	2.95774792039	
2.95774792033	2.95774792037	2.95774792033	2.95774792039	2.95774792041	
2.95774792041	2.95774792036	2.95774792037	2.95774792034	2.95774792032	
2.95774792033	2.9577479203	2.9577479203	2.95774792031	2.95774792048	
2.95774792049	2.95774792039	2.95774792043	2.95774792043	2.95774792038	
2.95774792036	2.95774792037	2.95774792031	2.95774792034	2.95774792033	
2.9743970746	2.9743970747	2.97439707464	2.97439707465	2.97439707463	
2.97439707464	2.97439707465	2.97439707466	2.97439707463	2.97439707461	
2.97439707463	2.97439707471	2.97439707469	2.97439707464	2.97439707469	
2.97439707469	2.97439707465	2.97439707464	2.97439707467	2.97439707465	
2.97439707461	2.97439707457	2.97439707475	2.97439707476	2.97439707469	
2.97439707467	2.97439707471	2.97439707472	2.97439707473	2.97439707475	
2.97439707468	2.97439707465	2.97439707463	2.97439707467	2.97439707473	
2.97439707469	2.97439707467	2.9743970747	2.9743970747	2.97439707469	
2.97439707469	2.97439707465	2.97439707467	2.97439707464	2.9743970747	
2.97439707473	2.9743970747	2.9743970747	2.97439707474	2.97439707472	
2.97439707471	2.97439707472	2.97439707466	2.97439707468	2.97439707465	
2.97439707464	2.97439707467	2.97439707465	2.97439707466	2.97439707469	
2.97439707466	2.97439707464	2.97439707466	2.97439707463	2.97439707465	
2.97439707459	2.97439707463	2.97439707464	2.97439707464	2.97439707465	
2.97439707467	2.97439707462	2.9743970746	2.97439707462	2.97439707459	
2.97439707463	2.97439707457	2.97439707467	2.97439707468	2.97439707469	
2.97439707467	2.97439707468	2.97439707465	2.97439707464	2.97439707465	
2.97439707462	2.97439707465	2.97439707461	2.9743970747	2.97439707474	
2.97439707473	2.97439707468	2.97439707469	2.97439707468	2.97439707468	
2.97439707468	2.97439707463	2.97439707466	2.97439707462	2.97439707469	
2.97439707471	2.9743970747	2.97439707465	2.97439707467	2.97439707463	
2.97439707461	2.97439707463	2.97439707459	2.9743970746	2.9743970746	
2.97439707478	2.97439707479	2.97439707469	2.97439707472	2.97439707472	
2.97439707468	2.97439707466	2.97439707467	2.9743970746	2.97439707463	
2.97439707462	2.99104622889	2.99104622899	2.99104622893	2.99104622894	
2.99104622892	2.99104622893	2.99104622894	2.99104622895	2.99104622892	
2.9910462289	2.99104622892	2.991046229	2.99104622898	2.99104622893	
2.99104622898	2.99104622898	2.99104622894	2.99104622893	2.99104622896	
2.99104622894	2.9910462289	2.99104622886	2.99104622904	2.99104622905	
2.99104622898	2.99104622896	2.991046229	2.99104622901	2.99104622903	
2.99104622904	2.99104622897	2.99104622894	2.99104622893	2.99104622896	
2.99104622902	2.99104622898	2.99104622896	2.99104622899	2.99104622899	
2.99104622899	2.99104622898	2.99104622894	2.99104622897	2.99104622893	
2.99104622899	2.99104622902	2.99104622899	2.99104622899	2.99104622903	
2.99104622901	2.991046229	2.99104622901	2.99104622895	2.99104622897	
2.99104622894	2.99104622893	2.99104622896	2.99104622894	2.99104622895	
2.99104622899	2.99104622895	2.99104622894	2.99104622895	2.99104622892	
2.99104622894	2.99104622888	2.99104622892	2.99104622893	2.99104622894	
2.99104622894	2.99104622896	2.99104622892	2.99104622889	2.99104622891	
2.99104622888	2.99104622892	2.99104622886	2.99104622896	2.99104622897	
2.99104622899	2.99104622897	2.99104622898	2.99104622894	2.99104622893	
2.99104622894	2.99104622891	2.99104622895	2.9910462289	2.99104622899	
2.99104622904	2.99104622902	2.99104622897	2.99104622898	2.99104622897	
2.99104622897	2.99104622897	2.99104622892	2.99104622895	2.99104622892	
2.99104622898	2.991046229	2.991046229	2.99104622895	2.99104622896	
2.99104622892	2.9910462289	2.99104622892	2.99104622888	2.99104622889	
2.99104622889	2.99104622907	2.99104622908	2.99104622898	2.99104622902	