<VTKFile type = "RectilinearGrid" version = "0.1" format = "ascii">
<RectilinearGrid WholeExtent = "1 176 1 82 1 1">
<Piece Extent = "1 176 1 82 1 1">
<Coordinates>
<DataArray type = "Float64" Name = "X_COORDINATES" NumberOfComponents = "1" format = "ascii">
-2.1705511364E+001	-2.1206534091E+001	-2.0707556818E+001	-2.0208579545E+001	-1.9709602273E+001
-1.9210625000E+001	-1.8711647727E+001	-1.8212670455E+001	-1.7713693182E+001	-1.7214715909E+001
-1.6715738636E+001	-1.6216761364E+001	-1.5717784091E+001	-1.5218806818E+001	-1.4719829545E+001
-1.4220852273E+001	-1.3721875000E+001	-1.3222897727E+001	-1.2723920455E+001	-1.2224943182E+001
-1.1725965909E+001	-1.1226988636E+001	-1.0728011364E+001	-1.0229034091E+001	-9.7300568182E+000
-9.2310795455E+000	-8.7321022727E+000	-8.2331250000E+000	-7.7341477273E+000	-7.2351704545E+000
-6.7361931818E+000	-6.2372159091E+000	-5.7382386364E+000	-5.2392613636E+000	-4.7402840909E+000
-4.2413068182E+000	-3.7423295455E+000	-3.2433522727E+000	-2.7443750000E+000	-2.2453977273E+000
-1.7464204545E+000	-1.2474431818E+000	-7.4846590909E-001	-2.4948863636E-001	2.4948863636E-001
7.4846590909E-001	1.2474431818E+000	1.7464204545E+000	2.2453977273E+000	2.7443750000E+000
3.2433522727E+000	3.7423295455E+000	4.2413068182E+000	4.7402840909E+000	5.2392613636E+000
5.7382386364E+000	6.2372159091E+000	6.7361931818E+000	7.2351704545E+000	7.7341477273E+000
8.2331250000E+000	8.7321022727E+000	9.2310795455E+000	9.7300568182E+000	1.0229034091E+001
1.0728011364E+001	1.1226988636E+001	1.1725965909E+001	1.2224943182E+001	1.2723920455E+001
1.3222897727E+001	1.3721875000E+001	1.4220852273E+001	1.4719829545E+001	1.5218806818E+001
1.5717784091E+001	1.6216761364E+001	1.6715738636E+001	1.7214715909E+001	1.7713693182E+001
1.8212670455E+001	1.8711647727E+001	1.9210625000E+001	1.9709602273E+001	2.0208579545E+001
2.0707556818E+001	2.1206534091E+001	2.1705511364E+001	2.2204488636E+001	2.2703465909E+001
2.3202443182E+001	2.3701420455E+001	2.4200397727E+001	2.4699375000E+001	2.5198352273E+001
2.5697329545E+001	2.6196306818E+001	2.6695284091E+001	2.7194261364E+001	2.7693238636E+001
2.8192215909E+001	2.8691193182E+001	2.9190170455E+001	2.9689147727E+001	3.0188125000E+001
3.0687102273E+001	3.1186079545E+001	3.1685056818E+001	3.2184034091E+001	3.2683011364E+001
3.3181988636E+001	3.3680965909E+001	3.4179943182E+001	3.4678920455E+001	3.5177897727E+001
3.5676875000E+001	3.6175852273E+001	3.6674829545E+001	3.7173806818E+001	3.7672784091E+001
3.8171761364E+001	3.8670738636E+001	3.9169715909E+001	3.9668693182E+001	4.0167670455E+001
4.0666647727E+001	4.1165625000E+001	4.1664602273E+001	4.2163579545E+001	4.2662556818E+001
4.3161534091E+001	4.3660511364E+001	4.4159488636E+001	4.4658465909E+001	4.5157443182E+001
4.5656420455E+001	4.6155397727E+001	4.6654375000E+001	4.7153352273E+001	4.7652329545E+001
4.8151306818E+001	4.8650284091E+001	4.9149261364E+001	4.9648238636E+001	5.0147215909E+001
5.0646193182E+001	5.1145170455E+001	5.1644147727E+001	5.2143125000E+001	5.2642102273E+001
5.3141079545E+001	5.3640056818E+001	5.4139034091E+001	5.4638011364E+001	5.5136988636E+001
5.5635965909E+001	5.6134943182E+001	5.6633920455E+001	5.7132897727E+001	5.7631875000E+001
5.8130852273E+001	5.8629829545E+001	5.9128806818E+001	5.9627784091E+001	6.0126761364E+001
6.0625738636E+001	6.1124715909E+001	6.1623693182E+001	6.2122670455E+001	6.2621647727E+001
6.3120625000E+001	6.3619602273E+001	6.4118579545E+001	6.4617556818E+001	6.5116534091E+001
6.5615511364E+001	</DataArray>
<DataArray type = "Float64" Name = "Y_COORDINATES" NumberOfComponents = "1" format = "ascii">
2.9285360874E+000	2.9305360874E+000	2.9325360874E+000	2.9345360874E+000	2.9365360874E+000
2.9385360874E+000	2.9405360874E+000	2.9425360874E+000	2.9445360874E+000	2.9465360874E+000
2.9485360874E+000	2.9505360874E+000	2.9525360874E+000	2.9545360874E+000	2.9565360874E+000
2.9585360874E+000	2.9605360874E+000	2.9625360874E+000	2.9645360874E+000	2.9665360874E+000
2.9685360874E+000	2.9705360874E+000	2.9725360874E+000	2.9745360874E+000	2.9765360874E+000
2.9785360874E+000	2.9805360874E+000	2.9825360874E+000	2.9845360874E+000	2.9865360874E+000
2.9885360874E+000	2.9905360874E+000	2.9925360874E+000	2.9945360874E+000	2.9965360874E+000
2.9985360874E+000	3.0005360874E+000	3.0025360874E+000	3.0045360874E+000	3.0065360874E+000
3.0085360874E+000	3.0105360874E+000	3.0125360874E+000	3.0145360874E+000	3.0165360874E+000
3.0185360874E+000	3.0205360874E+000	3.0225360874E+000	3.0245360874E+000	3.0265360874E+000
3.0285360874E+000	3.0305360874E+000	3.0325360874E+000	3.0345360874E+000	3.0365360874E+000
3.0385360874E+000	3.0405360874E+000	3.0425360874E+000	3.0445360874E+000	3.0465360874E+000
3.0485360874E+000	3.0505360874E+000	3.0525360874E+000	3.0545360874E+000	3.0565360874E+000
3.0585360874E+000	3.0605360874E+000	3.0625360874E+000	3.0645360874E+000	3.0665360874E+000
3.0685360874E+000	3.0705360874E+000	3.0725360874E+000	3.0745360874E+000	3.0765360874E+000
3.0785360874E+000	3.0805360874E+000	3.0825360874E+000	3.0845360874E+000	3.0865360874E+000
3.0885360874E+000	3.0905360874E+000	</DataArray>
<DataArray type = "Float64" Name = "Z_COORDINATES" NumberOfComponents = "1" format = "ascii">
0.0000000000E+000</DataArray>
</Coordinates>
<PointData>
<DataArray type = "Float64" Name = "Carrier density (cm^-3 eV^-1)" NumberOfComponents = "1" format = "ascii">
0.0000000000E+000	0.0000000000E+000	0.0000000000E+000	0.0000000000E+000	0.0000000000E+000
0.0000000000E+000	0.0000000000E+000	0.0000000000E+000	0.0000000000E+000	0.0000000000E+000
0.0000000000E+000	0.0000000000E+000	0.0000000000E+000	0.0000000000E+000	0.0000000000E+000
0.0000000000E+000	0.0000000000E+000	0.0000000000E+000	0.0000000000E+000	0.0000000000E+000
0.0000000000E+000	0.0000000000E+000	0.0000000000E+000	0.0000000000E+000	0.0000000000E+000
0.0000000000E+000	0.0000000000E+000	0.0000000000E+000	0.0000000000E+000	0.0000000000E+000
0.0000000000E+000	0.0000000000E+000	0.0000000000E+000	0.0000000000E+000	0.0000000000E+000
0.0000000000E+000	0.0000000000E+000	0.0000000000E+000	0.0000000000E+000	0.0000000000E+000
0.0000000000E+000	0.0000000000E+000	0.0000000000E+000	0.0000000000E+000	2.2865609584E+019
2.2674002190E+019	2.5782680540E+019	3.2794317201E+019	4.5021732416E+019	6.4737339235E+019
9.5605522335E+019	1.4338297880E+020	2.1702502639E+020	2.9962483290E+020	3.8652159974E+020
4.7589943122E+020	5.6465722748E+020	6.5004025603E+020	7.2977189941E+020	8.0213796428E+020
8.6601859737E+020	9.2086764851E+020	9.6664407378E+020	1.0037042515E+021	1.0326675012E+021
1.0542693412E+021	1.0692178962E+021	1.0780682874E+021	1.0811278783E+021	1.0784020708E+021
1.0695862681E+021	1.0541050060E+021	1.0311945363E+021	1.0000207647E+021	9.5982081060E+020
9.1005389966E+020	8.5054607679E+020	7.8161344715E+020	7.0415031066E+020	6.1967150657E+020
5.3030226711E+020	4.3871353641E+020	3.4800562353E+020	2.6154778142E+020	1.8278540828E+020
1.2285935907E+020	8.2897791574E+019	5.7295025805E+019	4.1317283007E+019	3.2021703065E+019
2.7697383472E+019	2.7541299076E+019	3.1505413067E+019	3.9783660967E+019	4.8202871089E+019
5.6907097477E+019	6.5436454225E+019	7.3335123397E+019	8.0175700051E+019	8.5582533626E+019
8.9252677498E+019	9.0973151796E+019	9.0633408699E+019	8.8232155595E+019	8.3878024042E+019
7.7783950122E+019	7.0255528751E+019	6.1673992883E+019	5.2474820209E+019	4.3123258800E+019
3.4088267496E+019	2.6486951400E+019	2.2132920534E+019	2.0833565386E+019	2.2337117448E+019
2.6888240502E+019	3.3842679814E+019	4.0657714986E+019	4.7321901242E+019	5.3455569989E+019
5.8709599887E+019	6.2787849892E+019	6.5466040857E+019	6.6605801361E+019	6.6162959801E+019
6.4189593739E+019	6.0829803721E+019	5.6309626073E+019	5.0921902570E+019	4.5007254322E+019
3.8932539559E+019	3.3068295972E+019	2.7767622159E+019	2.5985826700E+019	2.8053102989E+019
3.4394772970E+019	4.6212557570E+019	6.5715851284E+019	9.6544860461E+019	1.4446932994E+020
2.1850105960E+020	3.0164168513E+020	3.8922773922E+020	4.7946386676E+020	5.6925175999E+020
6.5582903404E+020	7.3689984284E+020	8.1071900809E+020	8.7612476204E+020	9.3251991155E+020
9.7980589827E+020	1.0182784334E+021	1.0484967430E+021	1.0711406672E+021	1.0868707194E+021
1.0962056464E+021	1.0994301071E+021	1.0965419715E+021	1.0872447395E+021	1.0709860473E+021
1.0470386046E+021	1.0146156062E+021	9.7300909403E+020	9.2173724690E+020	8.6068537629E+020
7.9022563198E+020	7.1130205712E+020	6.2547053757E+020	5.3488710839E+020	4.4224265987E+020
3.5064691384E+020	2.6346918148E+020	1.8414744407E+020	1.2387891381E+020	8.3790738768E+019
5.8242072205E+019	4.1317283007E+019	3.2021703065E+019	2.7697383472E+019	2.7541299076E+019	3.1505413067E+019
3.9783660967E+019	4.8202871089E+019	5.6907097477E+019	6.5436454225E+019	7.3335123397E+019
8.0175700051E+019	8.5582533626E+019	8.9252677498E+019	9.0973151796E+019	9.0633408699E+019
8.8232155595E+019	8.3878024042E+019	7.7783950122E+019	7.0255528751E+019	6.1673992883E+019
5.2474820209E+019	4.3123258800E+019	3.4088267496E+019	2.6486951400E+019	2.2132920534E+019
2.0833565386E+019	2.2337117448E+019	2.6888240502E+019	3.3842679814E+019	4.0657714986E+019
4.7321901242E+019	5.3455569989E+019	5.8709599887E+019	6.2787849892E+019	6.5466040857E+019
6.6605801361E+019	6.6162959801E+019	6.4189593739E+019	6.0829803721E+019	5.6309626073E+019
5.0921902570E+019	4.5007254322E+019	3.8932539559E+019	3.3068295972E+019	2.7767622159E+019
2.5985826700E+019	2.8053102989E+019	3.4394772970E+019	4.6212557570E+019	6.5715851284E+019
9.6544860461E+019	1.4446932994E+020	2.1850105960E+020	3.0164168513E+020	3.8922773922E+020
4.7946386676E+020	5.6925175999E+020	6.5582903404E+020	7.3689984284E+020	8.1071900809E+020
8.7612476204E+020	9.3251991155E+020	9.7980589827E+020	1.0182784334E+021	1.0484967430E+021
1.0711406672E+021	1.0868707194E+021	1.0962056464E+021	1.0994301071E+021	1.0965419715E+021
1.0872447395E+021	1.0709860473E+021	1.0470386046E+021	1.0146156062E+021	9.7300909403E+020
9.2173724690E+020	8.6068537629E+020	7.9022563198E+020	7.1130205712E+020	6.2547053757E+020
5.3488710839E+020	4.4224265987E+020	3.5064691384E+020	2.6346918148E+020	1.8414744407E+020
1.2387891381E+020	8.3790738768E+019	5.8242072205E+019	4.2493703313E+019	3.3634138006E+019
3.0024324308E+019	3.0985153517E+019	3.6665900645E+019	4.7465445629E+019	5.8424441629E+019
6.9740811721E+019	8.0822250887E+019	9.1084305459E+019	9.9981492468E+019	1.0703678708E+020
1.1186775686E+020	1.1420777318E+020	1.1392098723E+020	1.1101010827E+020	1.0561644362E+020
9.8012126477E+019	8.8584939463E+019	7.7816603757E+019	6.6255815925E+019	5.4487646004E+019
4.3101138251E+019	3.3505237595E+019	2.7989239374E+019	2.6304043100E+019	2.8123724812E+019
3.3744452654E+019	4.2350738505E+019	5.0764858215E+019	5.8975652426E+019	6.6515322864E+019
7.2953031767E+019	7.7922400346E+019	8.1144816789E+019	8.2446979805E+019	8.1771529229E+019
7.9180118684E+019	7.4848826374E+019	6.9056336579E+019	6.2165815515E+019	5.4601814789E+019
4.6823835532E+019	3.9298357586E+019	3.2471988648E+019	2.9746558491E+019	3.1459369192E+019
3.7983790072E+019	5.0568788734E+019	7.1581700986E+019	1.0496430765E+020	1.5699291335E+020
2.3749331429E+020	3.2803564851E+020	4.2359735706E+020	5.2227236840E+020	6.2072213433E+020
7.1595540091E+020	8.0546735575E+020	8.8733000104E+020	9.6022856019E+020	1.0234436748E+021
1.0767840568E+021	1.1204786809E+021	1.1550411354E+021	1.1811210728E+021	1.1993586083E+021
1.2102569253E+021	1.2140863248E+021	1.2108296821E+021	1.2001750669E+021	1.1815565234E+021
1.1542391452E+021	1.1174400630E+021	1.0704732201E+021	1.0129031872E+021	9.4469201495E+020
8.6632337389E+020	7.7888995443E+020	6.8413317210E+020	5.8442835037E+020	4.8271338136E+020
3.8236395115E+020	2.8702330438E+020	2.0039876666E+020	1.3461728401E+020	9.0848378477E+019
6.2900221058E+019	4.2493703313E+019	3.3634138006E+019	3.0024324308E+019	3.0985153517E+019	3.6665900645E+019
4.7465445629E+019	5.8424441629E+019	6.9740811721E+019	8.0822250887E+019	9.1084305459E+019
9.9981492468E+019	1.0703678708E+020	1.1186775686E+020	1.1420777318E+020	1.1392098723E+020
1.1101010827E+020	1.0561644362E+020	9.8012126477E+019	8.8584939463E+019	7.7816603757E+019
6.6255815925E+019	5.4487646004E+019	4.3101138251E+019	3.3505237595E+019	2.7989239374E+019
2.6304043100E+019	2.8123724812E+019	3.3744452654E+019	4.2350738505E+019	5.0764858215E+019
5.8975652426E+019	6.6515322864E+019	7.2953031767E+019	7.7922400346E+019	8.1144816789E+019
8.2446979805E+019	8.1771529229E+019	7.9180118684E+019	7.4848826374E+019	6.9056336579E+019
6.2165815515E+019	5.4601814789E+019	4.6823835532E+019	3.9298357586E+019	3.2471988648E+019
2.9746558491E+019	3.1459369192E+019	3.7983790072E+019	5.0568788734E+019	7.1581700986E+019
1.0496430765E+020	1.5699291335E+020	2.3749331429E+020	3.2803564851E+020	4.2359735706E+020
5.2227236840E+020	6.2072213433E+020	7.1595540091E+020	8.0546735575E+020	8.8733000104E+020
9.6022856019E+020	1.0234436748E+021	1.0767840568E+021	1.1204786809E+021	1.1550411354E+021
1.1811210728E+021	1.1993586083E+021	1.2102569253E+021	1.2140863248E+021	1.2108296821E+021
1.2001750669E+021	1.1815565234E+021	1.1542391452E+021	1.1174400630E+021	1.0704732201E+021
1.0129031872E+021	9.4469201495E+020	8.6632337389E+020	7.7888995443E+020	6.8413317210E+020
5.8442835037E+020	4.8271338136E+020	3.8236395115E+020	2.8702330438E+020	2.0039876666E+020
1.3461728401E+020	9.0848378477E+019	6.2900221058E+019	4.5567084969E+019	3.5630849325E+019
3.1245497046E+019	3.1584400091E+019	3.6680580659E+019	4.6836372657E+019	5.7149317528E+019
6.7802375446E+019	7.8236477251E+019	8.7899000631E+019	9.6273142379E+019	1.0290588140E+020
1.0743289445E+020	1.0959891664E+020	1.0927227227E+020	1.0645262552E+020	1.0127139791E+020
9.3984742918E+019	8.4959429478E+019	7.4652433300E+019	6.3585435672E+019	5.2315755895E+019
4.1405471065E+019	3.2206049731E+019	2.6917838282E+019	2.5301503837E+019	2.7044668394E+019
3.2431722105E+019	4.0678974178E+019	4.8736759032E+019	5.6597321810E+019	6.3816067435E+019
6.9984524166E+019	7.4756418392E+019	7.7869658810E+019	7.9162742708E+019	7.8584513474E+019
7.6196687397E+019	7.2169089897E+019	6.6768055203E+019	6.0338909728E+019	5.3283843611E+019
4.6036750144E+019	3.9036762496E+019	3.2703198677E+019	3.0507748533E+019	3.2834441037E+019
4.0174421356E+019	5.3936764343E+019	7.6722754028E+019	1.1282878334E+020	1.6907808901E+020
2.5614689150E+020	3.5422915920E+020	4.5797129744E+020	5.6537279772E+020	6.7286460995E+020
7.7723068592E+020	8.7575451968E+020	9.6631519152E+020	1.0474274997E+021	1.1182258975E+021
1.1783970446E+021	1.2280703655E+021	1.2676796690E+021	1.2978112910E+021	1.3190551573E+021
1.3318745498E+021	1.3365082552E+021	1.3329153793E+021	1.3207687438E+021	1.2994978459E+021
1.2683773214E+021	1.2266521773E+021	1.1736871833E+021	1.1091251060E+021	1.0330371900E+021
9.4604956088E+020	8.4943104348E+020	7.4513108861E+020	6.3576080637E+020	5.2451512966E+020
4.1503942323E+020	3.1124893422E+020	2.1711388962E+020	1.4570529252E+020	9.8232219524E+019
6.7939697689E+019	4.5567084969E+019	3.5630849325E+019	3.1245497046E+019	3.1584400091E+019	3.6680580659E+019
4.6836372657E+019	5.7149317528E+019	6.7802375446E+019	7.8236477251E+019	8.7899000631E+019
9.6273142379E+019	1.0290588140E+020	1.0743289445E+020	1.0959891664E+020	1.0927227227E+020
1.0645262552E+020	1.0127139791E+020	9.3984742918E+019	8.4959429478E+019	7.4652433300E+019
6.3585435672E+019	5.2315755895E+019	4.1405471065E+019	3.2206049731E+019	2.6917838282E+019
2.5301503837E+019	2.7044668394E+019	3.2431722105E+019	4.0678974178E+019	4.8736759032E+019
5.6597321810E+019	6.3816067435E+019	6.9984524166E+019	7.4756418392E+019	7.7869658810E+019
7.9162742708E+019	7.8584513474E+019	7.6196687397E+019	7.2169089897E+019	6.6768055203E+019
6.0338909728E+019	5.3283843611E+019	4.6036750144E+019	3.9036762496E+019	3.2703198677E+019
3.0507748533E+019	3.2834441037E+019	4.0174421356E+019	5.3936764343E+019	7.6722754028E+019
1.1282878334E+020	1.6907808901E+020	2.5614689150E+020	3.5422915920E+020	4.5797129744E+020
5.6537279772E+020	6.7286460995E+020	7.7723068592E+020	8.7575451968E+020	9.6631519152E+020
1.0474274997E+021	1.1182258975E+021	1.1783970446E+021	1.2280703655E+021	1.2676796690E+021
1.2978112910E+021	1.3190551573E+021	1.3318745498E+021	1.3365082552E+021	1.3329153793E+021
1.3207687438E+021	1.2994978459E+021	1.2683773214E+021	1.2266521773E+021	1.1736871833E+021
1.1091251060E+021	1.0330371900E+021	9.4604956088E+020	8.4943104348E+020	7.4513108861E+020
6.3576080637E+020	5.2451512966E+020	4.1503942323E+020	3.1124893422E+020	2.1711388962E+020
1.4570529252E+020	9.8232219524E+019	6.7939697689E+019	4.9157676933E+019	3.8380735584E+019
3.3594862134E+019	3.3890862909E+019	3.9287642010E+019	5.0097301989E+019	6.1075548975E+019
7.2417717669E+019	8.3529561247E+019	9.3823875748E+019	1.0275163871E+020	1.0983160105E+020
1.1467660677E+020	1.1701505988E+020	1.1670621022E+020	1.1374827587E+020	1.0827883932E+020
1.0056742054E+020	9.1000611855E+019	8.0060623462E+019	6.8298502436E+019	5.6303623185E+019
4.4671278593E+019	3.4853909145E+019	2.9237801603E+019	2.7570759043E+019	2.9529958765E+019
3.5438301619E+019	4.4448386024E+019	5.3238382220E+019	6.1811269676E+019	6.9696009147E+019
7.6464190962E+019	8.1757446643E+019	8.5309988351E+019	8.6964742884E+019	8.6682049697E+019
8.4540463838E+019	8.0729796500E+019	7.5537089151E+019	6.9326707107E+019	6.2516117432E+019
5.5549157870E+019	4.8868694284E+019	4.2891417516E+019	4.2366560092E+019	4.7982384943E+019
6.0868768905E+019	8.3507153099E+019	1.2021369222E+020	1.7797844218E+020	2.6782828733E+020
4.0698619494E+020	5.6421327276E+020	7.3120482369E+020	9.0495257257E+020	1.0798772162E+021
1.2508882539E+021	1.4136059172E+021	1.5645101130E+021	1.7010083338E+021	1.8214219384E+021
1.9248975894E+021	2.0112572909E+021	2.0808057837E+021	2.1341175575E+021	2.1718271087E+021
2.1944451967E+021	2.2022208169E+021	2.1950637083E+021	2.1725358994E+021	2.1339136699E+021
2.0783140226E+021	2.0048730097E+021	1.9129576712E+021	1.8023894484E+021	1.6736551119E+021
1.5280816685E+021	1.3679543750E+021	1.1965616551E+021	1.0181569820E+021	8.3783509677E+020
6.6132762068E+020	4.9473049930E+020	3.4418211385E+020	2.3014434253E+020	1.5428387466E+020
1.0566172411E+020	4.9157676933E+019	3.8380735584E+019	3.3594862134E+019	3.3890862909E+019	3.9287642010E+019
5.0097301989E+019	6.1075548975E+019	7.2417717669E+019	8.3529561247E+019	9.3823875748E+019
1.0275163871E+020	1.0983160105E+020	1.1467660677E+020	1.1701505988E+020	1.1670621022E+020
1.1374827587E+020	1.0827883932E+020	1.0056742054E+020	9.1000611855E+019	8.0060623462E+019
6.8298502436E+019	5.6303623185E+019	4.4671278593E+019	3.4853909145E+019	2.9237801603E+019
2.7570759043E+019	2.9529958765E+019	3.5438301619E+019	4.4448386024E+019	5.3238382220E+019
6.1811269676E+019	6.9696009147E+019	7.6464190962E+019	8.1757446643E+019	8.5309988351E+019
8.6964742884E+019	8.6682049697E+019	8.4540463838E+019	8.0729796500E+019	7.5537089151E+019
6.9326707107E+019	6.2516117432E+019	5.5549157870E+019	4.8868694284E+019	4.2891417516E+019
4.2366560092E+019	4.7982384943E+019	6.0868768905E+019	8.3507153099E+019	1.2021369222E+020
1.7797844218E+020	2.6782828733E+020	4.0698619494E+020	5.6421327276E+020	7.3120482369E+020
9.0495257257E+020	1.0798772162E+021	1.2508882539E+021	1.4136059172E+021	1.5645101130E+021
1.7010083338E+021	1.8214219384E+021	1.9248975894E+021	2.0112572909E+021	2.0808057837E+021
2.1341175575E+021	2.1718271087E+021	2.1944451967E+021	2.2022208169E+021	2.1950637083E+021
2.1725358994E+021	2.1339136699E+021	2.0783140226E+021	2.0048730097E+021	1.9129576712E+021
1.8023894484E+021	1.6736551119E+021	1.5280816685E+021	1.3679543750E+021	1.1965616551E+021
1.0181569820E+021	8.3783509677E+020	6.6132762068E+020	4.9473049930E+020	3.4418211385E+020
2.3014434253E+020	1.5428387466E+020	1.0566172411E+020	7.5083254942E+019	5.6782380940E+019
4.7306394510E+019	4.4849826828E+019	4.8904940104E+019	5.9418717313E+019	7.0128160934E+019
8.1205751812E+019	9.2061247107E+019	1.0210703399E+020	1.1078914953E+020	1.1761738438E+020
1.2219268289E+020	1.2423013390E+020	1.2357604903E+020	1.2021794253E+020	1.1428663908E+020
1.0605021740E+020	9.5900015976E+019	8.4329443753E+019	7.1906816904E+019	5.9243845246E+019
4.6961688189E+019	3.6583417218E+019	3.0603910573E+019	2.8747909372E+019	3.0658301300E+019
3.6649768064E+019	4.5834415759E+019	5.4788197379E+019	6.3516349467E+019	7.1540412105E+019
7.8424569878E+019	8.3803410876E+019	8.7404880378E+019	8.9066867450E+019	8.8746355574E+019
8.6520633601E+019	8.2580653443E+019	7.7217187573E+019	7.0800937587E+019	6.3758136823E+019
5.6543447740E+019	4.9612063323E+019	4.3394224001E+019	4.2677064015E+019	4.8142510012E+019
6.0897859066E+019	8.3408049718E+019	1.1997708154E+020	1.7758687451E+020	2.6726151054E+020
4.0623013742E+020	5.6335893457E+020	7.3040412187E+020	9.0440571292E+020	1.0798217638E+021
1.2515815913E+021	1.4153045721E+021	1.5674477604E+021	1.7053744267E+021	1.8273428919E+021
1.9324222437E+021	2.0203480178E+021	2.0913361235E+021	2.1458767065E+021	2.1845309878E+021
2.2077532583E+021	2.2157572520E+021	2.2084413357E+021	2.1853807940E+021	2.1458885306E+021
2.0891384025E+021	2.0143388191E+021	1.9209387862E+021	1.8088447853E+021	1.6786251026E+021
1.5316786483E+021	1.3703479197E+021	1.1979603270E+021	1.0187882340E+021	8.3792520625E+020
6.6108348011E+020	4.9432487448E+020	3.4374362035E+020	2.2972174582E+020	1.5387438068E+020
1.0523340293E+020	7.5083254942E+019	5.6782380940E+019	4.7306394510E+019	4.4849826828E+019	4.8904940104E+019
5.9418717313E+019	7.0128160934E+019	8.1205751812E+019	9.2061247107E+019	1.0210703399E+020
1.1078914953E+020	1.1761738438E+020	1.2219268289E+020	1.2423013390E+020	1.2357604903E+020
1.2021794253E+020	1.1428663908E+020	1.0605021740E+020	9.5900015976E+019	8.4329443753E+019
7.1906816904E+019	5.9243845246E+019	4.6961688189E+019	3.6583417218E+019	3.0603910573E+019
2.8747909372E+019	3.0658301300E+019	3.6649768064E+019	4.5834415759E+019	5.4788197379E+019
6.3516349467E+019	7.1540412105E+019	7.8424569878E+019	8.3803410876E+019	8.7404880378E+019
8.9066867450E+019	8.8746355574E+019	8.6520633601E+019	8.2580653443E+019	7.7217187573E+019
7.0800937587E+019	6.3758136823E+019	5.6543447740E+019	4.9612063323E+019	4.3394224001E+019
4.2677064015E+019	4.8142510012E+019	6.0897859066E+019	8.3408049718E+019	1.1997708154E+020
1.7758687451E+020	2.6726151054E+020	4.0623013742E+020	5.6335893457E+020	7.3040412187E+020
9.0440571292E+020	1.0798217638E+021	1.2515815913E+021	1.4153045721E+021	1.5674477604E+021
1.7053744267E+021	1.8273428919E+021	1.9324222437E+021	2.0203480178E+021	2.0913361235E+021
2.1458767065E+021	2.1845309878E+021	2.2077532583E+021	2.2157572520E+021	2.2084413357E+021
2.1853807940E+021	2.1458885306E+021	2.0891384025E+021	2.0143388191E+021	1.9209387862E+021
1.8088447853E+021	1.6786251026E+021	1.5316786483E+021	1.3703479197E+021	1.1979603270E+021
1.0187882340E+021	8.3792520625E+020	6.6108348011E+020	4.9432487448E+020	3.4374362035E+020
2.2972174582E+020	1.5387438068E+020	1.0523340293E+020	7.4580056722E+019	5.6121058917E+019
4.6366393400E+019	4.3455086419E+019	4.6794884628E+019	5.6245281549E+019	6.5870181999E+019
7.5821130215E+019	8.5565764232E+019	9.4573628159E+019	1.0234413170E+020	1.0843378029E+020
1.1248105301E+020	1.1422736880E+020	1.1353275737E+020	1.1038513310E+020	1.0490244185E+020
9.7327388524E+019	8.8014926312E+019	7.7413163623E+019	6.6038785208E+019	5.4448457125E+019
4.3207961372E+019	3.3715696552E+019	2.8275428291E+019	2.6640023091E+019	2.8494100882E+019
3.4145550392E+019	4.2778176548E+019	5.1201237374E+019	5.9425110402E+019	6.7006743526E+019
7.3544152708E+019	7.8702027036E+019	8.2232652019E+019	8.3990724427E+019	8.3941116351E+019
8.2159193637E+019	7.8823857644E+019	7.4204012238E+019	6.8639616729E+019	6.2518834770E+019
5.6253004163E+019	5.0251221261E+019	4.4897783310E+019	4.5235357378E+019	5.2054861265E+019
6.6725897648E+019	9.2090324464E+019	1.3301800054E+020	1.9735869204E+020	2.9748103350E+020
4.5270751547E+020	6.2845679669E+020	8.1564418853E+020	1.0110595541E+021	1.2085766472E+021
1.4025578418E+021	1.5880922786E+021	1.7611583604E+021	1.9187020870E+021	2.0586304656E+021
2.1797269123E+021	2.2815024841E+021	2.3640023108E+021	2.4275902405E+021	2.4727361431E+021
2.4998294108E+021	2.5090390502E+021	2.5002356737E+021	2.4729841506E+021	2.4266082814E+021
2.3603213093E+021	2.2734090884E+021	2.1654469446E+021	2.0365272478E+021	1.8874728480E+021
1.7200120055E+021	1.5368932456E+021	1.3419234564E+021	1.1399190927E+021	9.3656797197E+020
7.3820716241E+020	5.5153015140E+020	3.8324313721E+020	2.5595470645E+020	1.7137122247E+020
1.1719325863E+020	7.4580056722E+019	5.6121058917E+019	4.6366393400E+019	4.3455086419E+019	4.6794884628E+019
5.6245281549E+019	6.5870181999E+019	7.5821130215E+019	8.5565764232E+019	9.4573628159E+019
1.0234413170E+020	1.0843378029E+020	1.1248105301E+020	1.1422736880E+020	1.1353275737E+020
1.1038513310E+020	1.0490244185E+020	9.7327388524E+019	8.8014926312E+019	7.7413163623E+019
6.6038785208E+019	5.4448457125E+019	4.3207961372E+019	3.3715696552E+019	2.8275428291E+019
2.6640023091E+019	2.8494100882E+019	3.4145550392E+019	4.2778176548E+019	5.1201237374E+019
5.9425110402E+019	6.7006743526E+019	7.3544152708E+019	7.8702027036E+019	8.2232652019E+019
8.3990724427E+019	8.3941116351E+019	8.2159193637E+019	7.8823857644E+019	7.4204012238E+019
6.8639616729E+019	6.2518834770E+019	5.6253004163E+019	5.0251221261E+019	4.4897783310E+019
4.5235357378E+019	5.2054861265E+019	6.6725897648E+019	9.2090324464E+019	1.3301800054E+020
1.9735869204E+020	2.9748103350E+020	4.5270751547E+020	6.2845679669E+020	8.1564418853E+020
1.0110595541E+021	1.2085766472E+021	1.4025578418E+021	1.5880922786E+021	1.7611583604E+021
1.9187020870E+021	2.0586304656E+021	2.1797269123E+021	2.2815024841E+021	2.3640023108E+021
2.4275902405E+021	2.4727361431E+021	2.4998294108E+021	2.5090390502E+021	2.5002356737E+021
2.4729841506E+021	2.4266082814E+021	2.3603213093E+021	2.2734090884E+021	2.1654469446E+021
2.0365272478E+021	1.8874728480E+021	1.7200120055E+021	1.5368932456E+021	1.3419234564E+021
1.1399190927E+021	9.3656797197E+020	7.3820716241E+020	5.5153015140E+020	3.8324313721E+020
2.5595470645E+020	1.7137122247E+020	1.1719325863E+020	8.3103704994E+019	6.2626945485E+019
5.1869349522E+019	4.8763555035E+019	5.2665743509E+019	6.3436791642E+019	7.4385099569E+019
8.5685318885E+019	9.6732860313E+019	1.0692729377E+020	1.1570401521E+020	1.2256487053E+020
1.2710592240E+020	1.2904063748E+020	1.2821698625E+020	1.2462727607E+020	1.1840996105E+020
1.0984316276E+020	9.9330160190E+019	8.7377627299E+019	7.4567874759E+019	6.1526752393E+019
4.8889159823E+019	3.8234551565E+019	3.2184148334E+019	3.0470240250E+019	3.2761128551E+019
3.9442054986E+019	4.9593141471E+019	5.9523497894E+019	6.9253711849E+019	7.8271878956E+019
8.6114601341E+019	9.2396442974E+019	9.6833763049E+019	9.9261305755E+019	9.9640511317E+019
9.8059167574E+019	9.4722686764E+019	8.9937911813E+019	8.4090879490E+019	7.7620353344E+019
7.0989160390E+019	6.4655410664E+019	5.9047221042E+019	6.0921505237E+019	7.1440332101E+019
9.2718432923E+019	1.2890844227E+020	1.8701721594E+020	2.7828384134E+020	4.2039678758E+020
6.4099722459E+020	8.9139538860E+020	1.1589755953E+021	1.4394101095E+021	1.7241455222E+021
2.0052280169E+021	2.2756267148E+021	2.5294591153E+021	2.7621072863E+021	2.9702235236E+021
3.1516341929E+021	3.3051594680E+021	3.4303738828E+021	3.5273373634E+021	3.5963282822E+021
3.6376089224E+021	3.6512496738E+021	3.6370317030E+021	3.5944393556E+021	3.5227439785E+021
3.4211710755E+021	3.2891336599E+021	3.1265072076E+021	2.9339164361E+021	2.7130017667E+021
2.4666340001E+021	2.1990494265E+021	1.9158839931E+021	1.6240937008E+021	1.3317583458E+021
1.0477761674E+021	7.8146696797E+020	5.4210992970E+020	3.6138458002E+020	2.4144318950E+020
1.6467304200E+020	8.3103704994E+019	6.2626945485E+019	5.1869349522E+019	4.8763555035E+019	5.2665743509E+019
6.3436791642E+019	7.4385099569E+019	8.5685318885E+019	9.6732860313E+019	1.0692729377E+020
1.1570401521E+020	1.2256487053E+020	1.2710592240E+020	1.2904063748E+020	1.2821698625E+020
1.2462727607E+020	1.1840996105E+020	1.0984316276E+020	9.9330160190E+019	8.7377627299E+019
7.4567874759E+019	6.1526752393E+019	4.8889159823E+019	3.8234551565E+019	3.2184148334E+019
3.0470240250E+019	3.2761128551E+019	3.9442054986E+019	4.9593141471E+019	5.9523497894E+019
6.9253711849E+019	7.8271878956E+019	8.6114601341E+019	9.2396442974E+019	9.6833763049E+019
9.9261305755E+019	9.9640511317E+019	9.8059167574E+019	9.4722686764E+019	8.9937911813E+019
8.4090879490E+019	7.7620353344E+019	7.0989160390E+019	6.4655410664E+019	5.9047221042E+019
6.0921505237E+019	7.1440332101E+019	9.2718432923E+019	1.2890844227E+020	1.8701721594E+020
2.7828384134E+020	4.2039678758E+020	6.4099722459E+020	8.9139538860E+020	1.1589755953E+021
1.4394101095E+021	1.7241455222E+021	2.0052280169E+021	2.2756267148E+021	2.5294591153E+021
2.7621072863E+021	2.9702235236E+021	3.1516341929E+021	3.3051594680E+021	3.4303738828E+021
3.5273373634E+021	3.5963282822E+021	3.6376089224E+021	3.6512496738E+021	3.6370317030E+021
3.5944393556E+021	3.5227439785E+021	3.4211710755E+021	3.2891336599E+021	3.1265072076E+021
2.9339164361E+021	2.7130017667E+021	2.4666340001E+021	2.1990494265E+021	1.9158839931E+021
1.6240937008E+021	1.3317583458E+021	1.0477761674E+021	7.8146696797E+020	5.4210992970E+020
3.6138458002E+020	2.4144318950E+020	1.6467304200E+020	1.1633382491E+020	8.7163070295E+019
7.1562883089E+019	6.6506090760E+019	7.0942564951E+019	8.4538851646E+019	9.8361244142E+019
1.1262245864E+020	1.2655438912E+020	1.3939411730E+020	1.5042389498E+020	1.5900989616E+020
1.6463745953E+020	1.6694064171E+020	1.6572415678E+020	1.6097617844E+020	1.5287100609E+020
1.4176121085E+020	1.2815954112E+020	1.1271153149E+020	9.6160374930E+019	7.9306139361E+019
6.2961795270E+019	4.9155032742E+019	4.1236808904E+019	3.8841610674E+019	4.1507623336E+019
4.9680744482E+019	6.2175758617E+019	7.4364826058E+019	8.6271118104E+019	9.7258736038E+019
1.0674801778E+020	1.1425197792E+020	1.1940648892E+020	1.2199217169E+020	1.2194659933E+020
1.1936614774E+020	1.1449758837E+020	1.0772025045E+020	9.9520225113E+019	9.0458592381E+019
8.1135989463E+019	7.2155985509E+019	6.4092368595E+019	6.4105546963E+019	7.3300511390E+019